2688
 Atoms. Timestep: 13821
O 22.9257 4.9036 3.18597
Si 24.5705 4.85751 3.17406
Si 21.3954 4.325 3.16402
O 23.4145 1.1332 3.18551
Si 24.9931 1.59759 3.17353
Si 21.7872 1.3022 3.16344
O 25.5224 0.799957 4.54991
O 25.1626 3.2769 3.17282
O 25.5223 0.799638 1.79777
O 21.2819 0.886393 4.63556
O 21.2932 2.77501 2.80051
O 21.2953 0.452069 1.88341
O 21.5313 9.28228 0.43466
Si 23.1535 9.55795 0.422656
Si 20.1433 8.41615 0.412706
O 22.7465 5.6798 0.433992
Si 24.2041 6.44325 0.421973
Si 21.1175 5.52803 0.411882
O 24.8787 5.76415 1.79838
O 24.0427 8.12338 0.421348
O 24.8788 5.76375 37.5762
O 20.7029 5.02174 1.88405
O 20.3458 6.87617 0.0486576
O 20.8009 4.59806 37.6619
O 19.309 13.3046 3.18789
Si 20.8461 13.8915 3.17559
Si 18.1168 12.1842 3.16573
O 21.204 10.0084 3.18701
Si 22.4844 11.0417 3.17488
Si 19.6359 9.54165 3.16485
O 23.2787 10.5073 4.55124
O 21.9982 12.6581 3.17427
O 23.2788 10.507 1.79907
O 19.3282 8.96432 4.63707
O 18.6161 10.7134 2.80166
O 19.5069 8.56776 1.88495
O 16.3437 16.8154 0.436788
Si 17.7369 17.691 0.424382
Si 15.3933 15.4837 0.414511
O 18.8461 13.9526 0.435874
Si 19.9003 15.216 0.423536
Si 17.3993 13.1888 0.413623
O 20.7836 14.847 1.79988
O 19.1077 16.7062 0.423002
O 20.7838 14.8467 37.5777
O 17.2102 12.5625 1.88585
O 16.1703 14.1388 0.050434
O 17.4629 12.2086 37.6636
O 12.7505 19.6795 3.18966
Si 13.9458 20.8104 3.17737
Si 12.0783 18.188 3.16751
O 15.7634 17.3606 3.18857
Si 16.5507 18.8055 3.17659
Si 14.4937 16.329 3.16663
O 17.4891 18.6159 4.55293
O 15.4825 20.1124 3.17602
O 17.4893 18.6158 1.8008
O 14.4303 15.6779 4.63887
O 13.1028 17.0207 2.80335
O 14.7473 15.3799 1.88671
O 8.66681 21.7868 0.438664
Si 9.61829 23.1292 0.426285
Si 8.29884 20.1927 0.41646
O 12.075 20.1008 0.437218
Si 12.5648 21.6716 0.425308
Si 11.0309 18.8412 0.415378
O 13.5221 21.6691 1.80166
O 11.2618 22.7446 0.424845
O 13.5224 21.6689 37.5795
O 11.0959 18.1904 1.88763
O 9.53167 19.2479 0.0523448
O 11.465 17.96 37.6654
O 4.25028 23.0562 3.1919
Si 4.92137 24.5585 3.17939
Si 4.20051 21.4209 3.16949
O 7.9217 22.068 3.19049
Si 8.09563 23.7042 3.17845
Si 7.14383 20.6288 3.16859
O 9.03504 23.8886 4.5548
O 6.6083 24.5022 3.17787
O 9.03534 23.8885 1.80274
O 7.33494 20.0031 4.64084
O 5.594 20.7347 2.8056
O 7.74178 19.8494 1.88862
O -0.328851 23.4395 0.44059
Si 0.0360508 25.0439 0.428078
Si -0.0586918 21.8259 0.418173
O 3.46466 23.1867 0.439285
Si 3.31591 24.8254 0.427335
Si 2.98262 21.6233 0.417356
O 4.20114 25.1896 1.80374
O 1.7015 25.3179 0.426645
O 4.20152 25.1895 37.5815
O 3.29208 21.0469 1.88958
O 1.44192 21.425 0.0541428
O 3.72108 20.9755 37.6673
O -4.89508 22.922 3.1934
Si -4.85 24.5668 3.18097
Si -4.31524 21.3922 3.17101
O -1.12481 23.4142 3.19228
Si -1.59052 24.9923 3.18025
Si -1.29272 21.7868 3.17033
O -0.793513 25.5223 4.5567
O -3.26998 25.1604 3.1795
O -0.79291 25.5223 1.80459
O -0.876758 21.2819 4.64258
O -2.76519 21.2917 2.80718
O -0.441964 21.2955 1.89037
O -9.27263 21.524 0.442069
Si -9.5492 23.146 0.429514
Si -8.40566 20.1366 0.419589
O -5.67087 22.742 0.441101
Si -6.43538 24.1991 0.4289
Si -5.51812 21.1132 0.418857
O -5.75684 24.8743 1.80527
O -8.11533 24.0364 0.42806
O -5.75647 24.8743 37.5831
O -5.01146 20.6991 1.89106
O -6.86574 20.3403 0.0558497
O -4.58787 20.7973 37.6689
O -13.2938 19.2996 3.19435
Si -13.8813 20.8366 3.18212
Si -12.173 18.1078 3.17223
O -9.99864 21.1961 3.194
Si -11.0324 22.4762 3.1817
Si -9.53111 19.6282 3.17173
O -10.4987 23.2707 4.55821
O -12.6485 21.9893 3.18081
O -10.4981 23.271 1.80603
O -8.95345 19.321 4.64397
O -10.7023 18.6077 2.80851
O -8.55708 19.4999 1.8918
O -16.804 16.3339 0.442516
Si -17.6799 17.7268 0.430281
Si -15.4724 15.3834 0.420376
O -13.9419 18.8363 0.442362
Si -15.2054 19.8904 0.430022
Si -13.1776 17.3897 0.420113
O -14.8368 20.7738 1.80643
O -16.6954 19.0977 0.429009
O -14.8364 20.774 37.5843
O -12.5511 17.201 1.89233
O -14.1272 16.1602 0.0570196
O -12.1974 17.4538 37.67
O -19.6687 12.7406 3.19467
Si -20.7994 13.936 3.18254
Si -18.1773 12.0682 3.17269
O -17.3495 15.7533 3.19457
Si -18.7943 16.5408 3.18245
Si -16.318 14.4835 3.1725
O -18.6049 17.479 4.55891
O -20.1012 15.4727 3.18142
O -18.6045 17.4793 1.80673
O -15.6666 14.4204 4.64466
O -17.0095 13.0924 2.80933
O -15.3689 14.7372 1.89254
O -21.778 8.65822 0.442426
Si -23.1202 9.61006 0.430289
Si -20.1841 8.28926 0.420453
O -20.0906 12.0648 0.442595
Si -21.6612 12.5555 0.430397
Si -18.8311 11.0206 0.420549
O -21.6584 13.5126 1.8069
O -22.735 11.2533 0.429247
O -21.658 13.5131 37.5847
O -18.1799 11.0858 1.89273
O -19.2381 9.52144 0.0572612
O -17.9498 11.4546 37.6705
O -23.0506 4.24243 3.19431
Si -24.5526 4.91433 3.18212
Si -21.4154 4.19158 3.1722
O -22.06 7.91303 3.19455
Si -23.6961 8.08787 3.18241
Si -20.6211 7.13441 3.17259
O -23.88 9.02726 4.55884
O -24.4951 6.60116 3.18116
O -23.8799 9.02767 1.80673
O -19.9952 7.3253 4.64474
O -20.728 5.58471 2.80917
O -19.8414 7.73182 1.89263
O -23.4376 -0.336725 0.441692
Si -25.0418 0.0293574 0.429486
Si -21.8239 -0.0675375 0.419587
O -23.1819 3.45669 0.442328
Si -24.8207 3.30908 0.429954
Si -21.6188 2.97364 0.420063
O -25.1842 4.19446 1.80649
O -25.3145 1.69506 0.428647
O -25.1841 4.19502 37.5842
O -21.0421 3.28289 1.89223
O -21.4215 1.43289 0.0563817
O -20.9705 3.71173 37.6701
O -22.9239 -4.90313 3.19325
Si -24.5687 -4.85705 3.18104
Si -21.3936 -4.32438 3.1711
O -23.4132 -1.13274 3.19393
Si -24.9917 -1.59728 3.18157
Si -21.7859 -1.30165 3.17172
O -25.5209 -0.799801 4.55808
O -25.1611 -3.27661 3.18018
O -25.521 -0.79929 1.80589
O -21.2806 -0.885965 4.6439
O -21.292 -2.77429 2.80787
O -21.294 -0.451271 1.89182
O -21.529 -9.28187 0.44028
Si -23.1512 -9.55746 0.428066
Si -20.1412 -8.41549 0.418065
O -22.7446 -5.67893 0.441303
Si -24.202 -6.44267 0.428842
Si -21.1156 -5.52729 0.418984
O -24.8768 -5.76371 1.80532
O -24.0404 -8.12281 0.427372
O -24.8769 -5.76324 37.5831
O -20.701 -5.02107 1.89117
O -20.3441 -6.87539 0.0548486
O -20.7991 -4.59728 37.669
O -19.3063 -13.304 3.19147
Si -20.8435 -13.8908 3.17933
Si -18.1144 -12.1834 3.1693
O -21.2018 -10.0077 3.19266
Si -22.4822 -11.0411 3.18013
Si -19.6338 -9.54099 3.1702
O -23.2764 -10.5069 4.55665
O -21.9958 -12.6574 3.17863
O -23.2766 -10.5064 1.80448
O -19.326 -8.96367 4.64243
O -18.6141 -10.7126 2.80592
O -19.5049 -8.56704 1.89034
O -16.3414 -16.8146 0.438377
Si -17.7345 -17.6903 0.426223
Si -15.391 -15.4829 0.416232
O -18.8438 -13.9519 0.439586
Si -19.8979 -15.2154 0.42711
Si -17.397 -13.1881 0.417162
O -20.7811 -14.8464 1.8036
O -19.1054 -16.7056 0.425554
O -20.7813 -14.846 37.5814
O -17.2078 -12.5618 1.88939
O -16.1681 -14.1379 0.0529051
O -17.4607 -12.2077 37.6673
O -12.748 -19.6789 3.18956
Si -13.9433 -20.8096 3.17741
Si -12.0758 -18.1873 3.16734
O -15.7612 -17.3597 3.19082
Si -16.5484 -18.8046 3.17829
Si -14.4913 -16.3282 3.16838
O -17.4867 -18.6153 4.55478
O -15.4801 -20.1114 3.17676
O -17.4871 -18.6149 1.80268
O -14.4279 -15.6772 4.64066
O -13.1007 -17.02 2.80399
O -14.7452 -15.3792 1.88851
O -8.66454 -21.7866 0.436131
Si -9.61614 -23.129 0.424186
Si -8.29652 -20.1925 0.41418
O -12.0723 -20.1002 0.437593
Si -12.5624 -21.671 0.425174
Si -11.0284 -18.8406 0.415203
O -13.5196 -21.6684 1.80165
O -11.2596 -22.7442 0.423562
O -13.52 -21.6681 37.5795
O -11.0934 -18.1896 1.88743
O -9.5294 -19.2475 0.0509952
O -11.4627 -17.9594 37.6653
O -4.24835 -23.0563 3.18753
Si -4.91946 -24.5586 3.17551
Si -4.19835 -21.421 3.16543
O -7.91959 -22.068 3.18849
Si -8.09363 -23.7042 3.17625
Si -7.14161 -20.6288 3.16633
O -9.03298 -23.8885 4.55271
O -6.60639 -24.5024 3.1748
O -9.03344 -23.8884 1.80062
O -7.3326 -20.003 4.63853
O -5.59199 -20.7348 2.80235
O -7.73954 -19.8494 1.88642
O 0.330979 -23.4398 0.434469
Si -0.0340621 -25.0443 0.422478
Si 0.0607848 -21.8263 0.412542
O -3.46256 -23.1868 0.435443
Si -3.31394 -24.8255 0.423278
Si -2.98048 -21.6234 0.413288
O -4.19915 -25.1897 1.79977
O -1.69955 -25.3181 0.421755
O -4.19975 -25.1896 37.5777
O -3.28994 -21.047 1.88553
O -1.43994 -21.4251 0.0494199
O -3.71902 -20.9757 37.6633
O 4.89693 -22.9226 3.18591
Si 4.85214 -24.5674 3.17376
Si 4.31725 -21.3926 3.16385
O 1.12721 -23.4147 3.18672
Si 1.59272 -24.9929 3.17453
Si 1.29485 -21.7872 3.16468
O 0.795448 -25.5227 4.551
O 3.27215 -25.1611 3.17308
O 0.795067 -25.5227 1.79885
O 0.878669 -21.2822 4.63684
O 2.76703 -21.2918 2.80101
O 0.444125 -21.2961 1.88475
O 9.27456 -21.5247 0.433256
Si 9.55131 -23.1467 0.421154
Si 8.40758 -20.1372 0.411138
O 5.67301 -22.7426 0.433604
Si 6.43746 -24.1997 0.421561
Si 5.52009 -21.1137 0.411714
O 5.75903 -24.8749 1.79804
O 8.11744 -24.0371 0.42031
O 5.75853 -24.875 37.5759
O 5.01341 -20.6996 1.88389
O 6.86752 -20.3409 0.0480611
O 4.58995 -20.7978 37.6617
O 13.2955 -19.2998 3.18527
Si 13.8833 -20.8367 3.17281
Si 12.1747 -18.108 3.16296
O 10.0006 -21.1965 3.18543
Si 11.0345 -22.4766 3.17324
Si 9.53293 -19.6288 3.16328
O 10.5007 -23.2712 4.54965
O 12.6506 -21.9895 3.17195
O 10.5004 -23.2714 1.79756
O 8.95505 -19.3216 4.63545
O 10.7037 -18.6078 2.8
O 8.55899 -19.5005 1.88331
O 16.8056 -16.3338 0.43271
Si 17.6817 -17.7267 0.420521
Si 15.4739 -15.3834 0.410478
O 13.9439 -18.8367 0.432824
Si 15.2075 -19.8906 0.420658
Si 13.1795 -17.3902 0.410807
O 14.8387 -20.774 1.79708
O 16.6974 -19.0977 0.419626
O 14.8385 -20.7742 37.5749
O 12.5528 -17.2015 1.88293
O 14.1288 -16.1607 0.0473934
O 12.1992 -17.454 37.6608
O 19.6703 -12.7406 3.18451
Si 20.801 -13.936 3.17261
Si 18.1789 -12.0682 3.16251
O 17.351 -15.7532 3.18447
Si 18.7958 -16.5406 3.17262
Si 16.3194 -14.4834 3.16262
O 18.6065 -17.4789 4.54904
O 20.1028 -15.4726 3.17163
O 18.6063 -17.4792 1.79692
O 15.668 -14.4204 4.63478
O 17.011 -13.0925 2.79925
O 15.3704 -14.7372 1.88263
O 21.7791 -8.65765 0.432768
Si 23.1212 -9.60951 0.420612
Si 20.1852 -8.28869 0.410462
O 20.092 -12.0646 0.432391
Si 21.6625 -12.5552 0.420455
Si 18.8325 -11.0204 0.410398
O 21.6597 -13.5126 1.7968
O 22.736 -11.2528 0.419567
O 21.6596 -13.5127 37.5747
O 18.1814 -11.0858 1.88257
O 19.2391 -9.52096 0.0475644
O 17.9513 -11.4545 37.6603
O 23.0519 -4.24188 3.18489
Si 24.5538 -4.91388 3.1731
Si 21.4166 -4.19095 3.16305
O 22.0611 -7.91247 3.18474
Si 23.6972 -8.08743 3.17279
Si 20.6223 -7.1338 3.1626
O 23.8811 -9.0268 4.54919
O 24.4964 -6.60077 3.17197
O 23.881 -9.02716 1.79703
O 19.9962 -7.32482 4.63468
O 20.7293 -5.58399 2.79963
O 19.8424 -7.73099 1.88255
O 23.439 0.336982 0.433224
Si 25.0432 -0.0290896 0.421349
Si 21.8253 0.068114 0.411271
O 23.1832 -3.45604 0.432756
Si 24.822 -3.30865 0.420991
Si 21.62 -2.97304 0.410914
O 25.1855 -4.19417 1.7974
O 25.3159 -1.69471 0.42017
O 25.1854 -4.19453 37.5752
O 21.0433 -3.28233 1.88308
O 21.4226 -1.43218 0.0478628
O 20.9717 -3.71102 37.6609
O 22.9257 4.9036 8.69025
Si 24.5705 4.85751 8.67834
Si 21.3954 4.325 8.6683
O 23.4145 1.1332 8.68978
Si 24.9931 1.59759 8.67781
Si 21.7873 1.3022 8.66772
O 25.5224 0.799957 10.0542
O 25.1626 3.2769 8.6771
O 25.5223 0.799638 7.30205
O 21.2819 0.886394 10.1398
O 21.2932 2.77501 8.30479
O 21.2953 0.452065 7.38768
O 21.5313 9.28229 5.93894
Si 23.1534 9.55795 5.92694
Si 20.1433 8.41615 5.91699
O 22.7465 5.6798 5.93827
Si 24.2041 6.44325 5.92625
Si 21.1175 5.52802 5.91616
O 24.8787 5.76415 7.30266
O 24.0427 8.12338 5.92563
O 24.8788 5.76375 4.55049
O 20.7029 5.02174 7.38833
O 20.3458 6.87618 5.55294
O 20.8009 4.59807 4.63626
O 19.309 13.3046 8.69217
Si 20.8461 13.8915 8.67987
Si 18.1168 12.1842 8.67001
O 21.204 10.0084 8.69129
Si 22.4845 11.0417 8.67916
Si 19.6359 9.54166 8.66914
O 23.2787 10.5073 10.0555
O 21.9982 12.6581 8.67855
O 23.2788 10.507 7.30335
O 19.3282 8.96432 10.1413
O 18.6161 10.7134 8.30594
O 19.5069 8.56775 7.38922
O 16.3437 16.8154 5.94107
Si 17.7369 17.691 5.92866
Si 15.3933 15.4837 5.91879
O 18.8461 13.9526 5.94015
Si 19.9003 15.216 5.92781
Si 17.3993 13.1888 5.91791
O 20.7836 14.847 7.30416
O 19.1077 16.7062 5.92728
O 20.7838 14.8467 4.55204
O 17.2102 12.5625 7.39012
O 16.1703 14.1388 5.55471
O 17.4629 12.2086 4.6379
O 12.7505 19.6795 8.69394
Si 13.9458 20.8104 8.68164
Si 12.0783 18.188 8.67179
O 15.7634 17.3606 8.69285
Si 16.5507 18.8055 8.68087
Si 14.4937 16.329 8.67091
O 17.4891 18.6159 10.0572
O 15.4825 20.1124 8.6803
O 17.4893 18.6158 7.30508
O 14.4303 15.6779 10.1432
O 13.1028 17.0207 8.30763
O 14.7473 15.3799 7.39098
O 8.66681 21.7868 5.94294
Si 9.61829 23.1292 5.93056
Si 8.29884 20.1927 5.92073
O 12.075 20.1008 5.9415
Si 12.5648 21.6716 5.92959
Si 11.0309 18.8412 5.91966
O 13.5221 21.6691 7.30594
O 11.2618 22.7446 5.92912
O 13.5224 21.6689 4.55378
O 11.0959 18.1904 7.39191
O 9.53167 19.2479 5.55662
O 11.465 17.96 4.6397
O 4.25028 23.0562 8.69618
Si 4.92137 24.5585 8.68367
Si 4.20051 21.4209 8.67376
O 7.9217 22.068 8.69477
Si 8.09562 23.7042 8.68273
Si 7.14383 20.6288 8.67287
O 9.03504 23.8886 10.0591
O 6.60829 24.5022 8.68215
O 9.03534 23.8885 7.30702
O 7.33494 20.0031 10.1451
O 5.594 20.7347 8.30988
O 7.74178 19.8494 7.39291
O -0.328851 23.4395 5.94487
Si 0.0360511 25.0439 5.93236
Si -0.0586885 21.8259 5.92246
O 3.46466 23.1867 5.94356
Si 3.31591 24.8254 5.93161
Si 2.98262 21.6233 5.92163
O 4.20114 25.1896 7.30802
O 1.7015 25.3179 5.93092
O 4.20152 25.1895 4.55584
O 3.29208 21.0469 7.39387
O 1.44192 21.425 5.55842
O 3.72108 20.9755 4.64166
O -4.89508 22.922 8.69768
Si -4.85 24.5668 8.68525
Si -4.31524 21.3922 8.67529
O -1.12481 23.4142 8.69656
Si -1.59052 24.9923 8.68453
Si -1.29272 21.7868 8.6746
O -0.793513 25.5223 10.061
O -3.26998 25.1604 8.68378
O -0.79291 25.5223 7.30887
O -0.876755 21.2819 10.1469
O -2.76519 21.2917 8.31146
O -0.441965 21.2955 7.39465
O -9.27263 21.524 5.94635
Si -9.5492 23.146 5.93379
Si -8.40566 20.1366 5.92387
O -5.67087 22.742 5.94538
Si -6.43538 24.1991 5.93318
Si -5.51812 21.1132 5.92314
O -5.75684 24.8743 7.30955
O -8.11533 24.0364 5.93234
O -5.75647 24.8743 4.55745
O -5.01146 20.6991 7.39534
O -6.86574 20.3403 5.56013
O -4.58786 20.7973 4.64321
O -13.2938 19.2996 8.69863
Si -13.8813 20.8366 8.6864
Si -12.173 18.1078 8.6765
O -9.99864 21.1961 8.69828
Si -11.0324 22.4762 8.68597
Si -9.53111 19.6282 8.67601
O -10.4987 23.2707 10.0625
O -12.6485 21.9893 8.68509
O -10.4981 23.271 7.31031
O -8.95345 19.321 10.1483
O -10.7023 18.6077 8.31279
O -8.55707 19.4999 7.39608
O -16.804 16.3339 5.9468
Si -17.6799 17.7268 5.93456
Si -15.4724 15.3834 5.92465
O -13.9419 18.8363 5.94664
Si -15.2054 19.8904 5.9343
Si -13.1776 17.3897 5.92439
O -14.8368 20.7738 7.31071
O -16.6954 19.0977 5.93329
O -14.8364 20.774 4.55865
O -12.5511 17.201 7.39661
O -14.1272 16.1602 5.5613
O -12.1974 17.4538 4.64437
O -19.6687 12.7406 8.69895
Si -20.7994 13.936 8.68682
Si -18.1773 12.0682 8.67698
O -17.3495 15.7533 8.69885
Si -18.7943 16.5408 8.68673
Si -16.318 14.4835 8.67678
O -18.6049 17.479 10.0632
O -20.1012 15.4727 8.6857
O -18.6045 17.4793 7.31101
O -15.6666 14.4204 10.1489
O -17.0095 13.0924 8.3136
O -15.3689 14.7372 7.39683
O -21.778 8.65822 5.94671
Si -23.1202 9.61006 5.93457
Si -20.1841 8.28926 5.92473
O -20.0906 12.0648 5.94687
Si -21.6612 12.5555 5.93468
Si -18.8311 11.0206 5.92482
O -21.6584 13.5126 7.31117
O -22.735 11.2533 5.93353
O -21.658 13.5131 4.55903
O -18.1799 11.0858 7.39701
O -19.2381 9.52144 5.56154
O -17.9498 11.4546 4.64487
O -23.0506 4.24243 8.69859
Si -24.5526 4.91433 8.6864
Si -21.4154 4.19158 8.67648
O -22.06 7.91303 8.69883
Si -23.6961 8.08787 8.68669
Si -20.6211 7.13441 8.67688
O -23.88 9.02726 10.0631
O -24.4951 6.60116 8.68544
O -23.8799 9.02767 7.31101
O -19.9952 7.32529 10.149
O -20.728 5.58471 8.31345
O -19.8414 7.73182 7.39691
O -23.4376 -0.336725 5.94597
Si -25.0418 0.0293573 5.93377
Si -21.8239 -0.0675386 5.92386
O -23.1819 3.45669 5.94661
Si -24.8207 3.30908 5.93423
Si -21.6188 2.97364 5.92434
O -25.1842 4.19446 7.31077
O -25.3145 1.69506 5.93293
O -25.1841 4.19502 4.55854
O -21.0421 3.28289 7.39652
O -21.4215 1.43289 5.56066
O -20.9705 3.71173 4.6444
O -22.9239 -4.90313 8.69753
Si -24.5687 -4.85705 8.68531
Si -21.3936 -4.32438 8.67539
O -23.4132 -1.13274 8.69821
Si -24.9917 -1.59728 8.68585
Si -21.7859 -1.30164 8.676
O -25.5209 -0.7998 10.0624
O -25.1611 -3.27661 8.68446
O -25.521 -0.79929 7.31017
O -21.2806 -0.885967 10.1482
O -21.292 -2.7743 8.31215
O -21.294 -0.451273 7.39611
O -21.529 -9.28187 5.94456
Si -23.1512 -9.55746 5.93235
Si -20.1412 -8.41549 5.92235
O -22.7446 -5.67893 5.94558
Si -24.202 -6.44267 5.93312
Si -21.1156 -5.52729 5.92326
O -24.8768 -5.76371 7.3096
O -24.0404 -8.12281 5.93165
O -24.8769 -5.76324 4.55746
O -20.701 -5.02107 7.39545
O -20.3441 -6.87539 5.55913
O -20.7991 -4.59728 4.64336
O -19.3063 -13.304 8.69575
Si -20.8435 -13.8908 8.68361
Si -18.1144 -12.1834 8.67358
O -21.2018 -10.0077 8.69694
Si -22.4822 -11.0411 8.68441
Si -19.6338 -9.541 8.67448
O -23.2764 -10.5069 10.0609
O -21.9958 -12.6574 8.68291
O -23.2766 -10.5064 7.30876
O -19.326 -8.96367 10.1467
O -18.6141 -10.7126 8.3102
O -19.5049 -8.56704 7.39461
O -16.3414 -16.8146 5.94266
Si -17.7345 -17.6903 5.9305
Si -15.391 -15.4829 5.92051
O -18.8438 -13.9519 5.94387
Si -19.8979 -15.2154 5.93139
Si -17.397 -13.1881 5.92145
O -20.7811 -14.8464 7.30788
O -19.1054 -16.7056 5.92983
O -20.7813 -14.846 4.55572
O -17.2078 -12.5618 7.39367
O -16.1681 -14.1379 5.55718
O -17.4607 -12.2077 4.64158
O -12.748 -19.6789 8.69384
Si -13.9433 -20.8096 8.68169
Si -12.0758 -18.1873 8.67161
O -15.7612 -17.3597 8.6951
Si -16.5484 -18.8046 8.68257
Si -14.4913 -16.3282 8.67266
O -17.4867 -18.6153 10.0591
O -15.4801 -20.1114 8.68104
O -17.4871 -18.6149 7.30696
O -14.4279 -15.6772 10.1449
O -13.1007 -17.02 8.30826
O -14.7452 -15.3792 7.39279
O -8.66454 -21.7866 5.94041
Si -9.61614 -23.129 5.92847
Si -8.29652 -20.1925 5.91846
O -12.0723 -20.1002 5.94187
Si -12.5624 -21.671 5.92945
Si -11.0284 -18.8406 5.91948
O -13.5196 -21.6684 7.30593
O -11.2596 -22.7442 5.92784
O -13.52 -21.6681 4.55383
O -11.0934 -18.1896 7.39171
O -9.5294 -19.2475 5.55527
O -11.4627 -17.9594 4.63958
O -4.24835 -23.0563 8.69181
Si -4.91946 -24.5586 8.67979
Si -4.19835 -21.421 8.66971
O -7.91959 -22.068 8.69277
Si -8.09363 -23.7042 8.68053
Si -7.14161 -20.6288 8.67061
O -9.03298 -23.8885 10.057
O -6.60639 -24.5024 8.67908
O -9.03344 -23.8884 7.3049
O -7.3326 -20.003 10.1428
O -5.59199 -20.7348 8.30663
O -7.73954 -19.8494 7.3907
O 0.330979 -23.4398 5.93875
Si -0.034062 -25.0443 5.92676
Si 0.0607853 -21.8263 5.91682
O -3.46256 -23.1868 5.93972
Si -3.31394 -24.8255 5.92756
Si -2.98048 -21.6234 5.91757
O -4.19915 -25.1897 7.30405
O -1.69955 -25.3181 5.92603
O -4.19975 -25.1896 4.55198
O -3.28994 -21.047 7.38981
O -1.43994 -21.4251 5.5537
O -3.71902 -20.9757 4.63763
O 4.89693 -22.9226 8.69019
Si 4.85214 -24.5674 8.67804
Si 4.31725 -21.3926 8.66813
O 1.12721 -23.4147 8.691
Si 1.59272 -24.9929 8.67881
Si 1.29485 -21.7872 8.66896
O 0.795448 -25.5227 10.0553
O 3.27215 -25.1611 8.67736
O 0.795067 -25.5227 7.30313
O 0.87867 -21.2822 10.1411
O 2.76703 -21.2918 8.30529
O 0.444124 -21.2961 7.38903
O 9.27456 -21.5247 5.93754
Si 9.55131 -23.1467 5.92543
Si 8.40758 -20.1372 5.91542
O 5.67301 -22.7426 5.93788
Si 6.43746 -24.1997 5.92584
Si 5.52009 -21.1137 5.91599
O 5.75903 -24.8749 7.30232
O 8.11744 -24.0371 5.92459
O 5.75853 -24.875 4.5502
O 5.01341 -20.6996 7.38817
O 6.86752 -20.3409 5.55234
O 4.58995 -20.7978 4.63604
O 13.2955 -19.2998 8.68954
Si 13.8833 -20.8367 8.67709
Si 12.1747 -18.108 8.66724
O 10.0006 -21.1965 8.68971
Si 11.0345 -22.4766 8.67752
Si 9.53293 -19.6288 8.66756
O 10.5007 -23.2712 10.0539
O 12.6506 -21.9895 8.67623
O 10.5004 -23.2714 7.30184
O 8.95505 -19.3216 10.1397
O 10.7037 -18.6078 8.30428
O 8.55899 -19.5005 7.38759
O 16.8056 -16.3338 5.93699
Si 17.6817 -17.7266 5.9248
Si 15.4739 -15.3834 5.91476
O 13.9439 -18.8367 5.9371
Si 15.2075 -19.8906 5.92494
Si 13.1795 -17.3902 5.91509
O 14.8387 -20.774 7.30136
O 16.6974 -19.0977 5.92391
O 14.8385 -20.7742 4.5492
O 12.5528 -17.2015 7.38721
O 14.1288 -16.1607 5.55167
O 12.1992 -17.454 4.6351
O 19.6703 -12.7406 8.68879
Si 20.801 -13.936 8.67688
Si 18.1789 -12.0682 8.66679
O 17.351 -15.7532 8.68875
Si 18.7958 -16.5406 8.6769
Si 16.3194 -14.4834 8.6669
O 18.6065 -17.4789 10.0533
O 20.1028 -15.4726 8.67591
O 18.6063 -17.4792 7.30119
O 15.668 -14.4204 10.1391
O 17.011 -13.0925 8.30353
O 15.3704 -14.7372 7.38691
O 21.7791 -8.65765 5.93705
Si 23.1212 -9.6095 5.92489
Si 20.1852 -8.28869 5.91474
O 20.092 -12.0646 5.93667
Si 21.6625 -12.5552 5.92473
Si 18.8325 -11.0204 5.91468
O 21.6597 -13.5126 7.30108
O 22.736 -11.2528 5.92385
O 21.6596 -13.5127 4.549
O 18.1814 -11.0858 7.38685
O 19.2391 -9.52096 5.55184
O 17.9513 -11.4545 4.63465
O 23.0519 -4.24188 8.68917
Si 24.5538 -4.91388 8.67738
Si 21.4166 -4.19095 8.66734
O 22.0611 -7.91247 8.68902
Si 23.6972 -8.08743 8.67707
Si 20.6223 -7.1338 8.66688
O 23.8811 -9.0268 10.0535
O 24.4964 -6.60077 8.67625
O 23.881 -9.02716 7.30131
O 19.9962 -7.32482 10.139
O 20.7293 -5.584 8.30391
O 19.8424 -7.73099 7.38683
O 23.439 0.336982 5.9375
Si 25.0432 -0.0290893 5.92563
Si 21.8252 0.0681155 5.91556
O 23.1832 -3.45604 5.93704
Si 24.822 -3.30865 5.92527
Si 21.62 -2.97304 5.9152
O 25.1855 -4.19417 7.30168
O 25.3159 -1.69471 5.92445
O 25.1854 -4.19453 4.54951
O 21.0433 -3.28233 7.38735
O 21.4226 -1.43217 5.55214
O 20.9717 -3.71102 4.6352
O 22.9257 4.9036 14.1945
Si 24.5705 4.85751 14.1826
Si 21.3954 4.325 14.1726
O 23.4145 1.1332 14.1941
Si 24.9931 1.59759 14.1821
Si 21.7872 1.3022 14.172
O 25.5224 0.799957 15.5585
O 25.1626 3.2769 14.1814
O 25.5223 0.799638 12.8063
O 21.2819 0.886393 15.6441
O 21.2932 2.77501 13.8091
O 21.2953 0.452069 12.892
O 21.5313 9.28228 11.4432
Si 23.1534 9.55795 11.4312
Si 20.1433 8.41615 11.4213
O 22.7465 5.6798 11.4426
Si 24.2041 6.44325 11.4305
Si 21.1175 5.52803 11.4204
O 24.8787 5.76415 12.8069
O 24.0427 8.12338 11.4299
O 24.8788 5.76375 10.0548
O 20.7029 5.02174 12.8926
O 20.3458 6.87617 11.0572
O 20.8009 4.59807 10.1405
O 19.309 13.3046 14.1964
Si 20.8461 13.8915 14.1842
Si 18.1168 12.1842 14.1743
O 21.204 10.0084 14.1956
Si 22.4844 11.0417 14.1834
Si 19.6359 9.54165 14.1734
O 23.2787 10.5073 15.5598
O 21.9982 12.6581 14.1828
O 23.2788 10.507 12.8076
O 19.3282 8.96432 15.6456
O 18.6161 10.7134 13.8102
O 19.5069 8.56776 12.8935
O 16.3437 16.8154 11.4453
Si 17.7369 17.691 11.4329
Si 15.3933 15.4837 11.4231
O 18.8461 13.9526 11.4444
Si 19.9003 15.216 11.4321
Si 17.3993 13.1888 11.4222
O 20.7836 14.847 12.8084
O 19.1077 16.7062 11.4316
O 20.7838 14.8467 10.0563
O 17.2102 12.5625 12.8944
O 16.1703 14.1388 11.059
O 17.4629 12.2086 10.1422
O 12.7505 19.6795 14.1982
Si 13.9458 20.8104 14.1859
Si 12.0783 18.188 14.1761
O 15.7635 17.3606 14.1971
Si 16.5507 18.8055 14.1851
Si 14.4937 16.329 14.1752
O 17.4891 18.6159 15.5615
O 15.4825 20.1124 14.1846
O 17.4893 18.6158 12.8094
O 14.4303 15.6779 15.6474
O 13.1028 17.0206 13.8119
O 14.7473 15.3799 12.8953
O 8.66681 21.7868 11.4472
Si 9.61829 23.1292 11.4348
Si 8.29884 20.1927 11.425
O 12.075 20.1008 11.4458
Si 12.5648 21.6716 11.4339
Si 11.0309 18.8412 11.4239
O 13.5221 21.6691 12.8102
O 11.2618 22.7446 11.4334
O 13.5223 21.6689 10.0581
O 11.0959 18.1904 12.8962
O 9.53167 19.2479 11.0609
O 11.465 17.96 10.144
O 4.25028 23.0562 14.2005
Si 4.92137 24.5585 14.188
Si 4.20051 21.4209 14.178
O 7.9217 22.068 14.1991
Si 8.09563 23.7042 14.187
Si 7.14383 20.6288 14.1771
O 9.03504 23.8886 15.5634
O 6.6083 24.5022 14.1864
O 9.03534 23.8885 12.8113
O 7.33494 20.0031 15.6494
O 5.594 20.7347 13.8142
O 7.74178 19.8494 12.8972
O -0.328851 23.4395 11.4491
Si 0.0360509 25.0439 11.4366
Si -0.058691 21.8259 11.4267
O 3.46466 23.1867 11.4478
Si 3.31591 24.8254 11.4359
Si 2.98262 21.6233 11.4259
O 4.20114 25.1896 12.8123
O 1.7015 25.3179 11.4352
O 4.20152 25.1895 10.0601
O 3.29208 21.0469 12.8981
O 1.44192 21.425 11.0627
O 3.72108 20.9755 10.1459
O -4.89508 22.922 14.202
Si -4.85 24.5668 14.1895
Si -4.31524 21.3922 14.1796
O -1.12481 23.4142 14.2008
Si -1.59052 24.9923 14.1888
Si -1.29272 21.7868 14.1789
O -0.793513 25.5223 15.5653
O -3.26998 25.1604 14.1881
O -0.79291 25.5223 12.8132
O -0.876756 21.2819 15.6511
O -2.76519 21.2917 13.8157
O -0.441964 21.2955 12.8989
O -9.27263 21.524 11.4506
Si -9.5492 23.146 11.4381
Si -8.40566 20.1366 11.4281
O -5.67087 22.742 11.4497
Si -6.43538 24.1991 11.4375
Si -5.51812 21.1132 11.4274
O -5.75684 24.8743 12.8138
O -8.11533 24.0364 11.4366
O -5.75647 24.8743 10.0617
O -5.01146 20.6991 12.8996
O -6.86574 20.3403 11.0644
O -4.58787 20.7973 10.1475
O -13.2938 19.2996 14.2029
Si -13.8813 20.8366 14.1907
Si -12.173 18.1078 14.1808
O -9.99864 21.1961 14.2026
Si -11.0324 22.4762 14.1903
Si -9.53111 19.6282 14.1803
O -10.4987 23.2707 15.5668
O -12.6485 21.9893 14.1894
O -10.4981 23.271 12.8146
O -8.95345 19.321 15.6525
O -10.7023 18.6077 13.8171
O -8.55708 19.4999 12.9004
O -16.804 16.3339 11.4511
Si -17.6799 17.7268 11.4388
Si -15.4724 15.3834 11.4289
O -13.9419 18.8363 11.4509
Si -15.2054 19.8904 11.4386
Si -13.1776 17.3897 11.4287
O -14.8368 20.7738 12.815
O -16.6954 19.0977 11.4376
O -14.8364 20.774 10.0629
O -12.5511 17.201 12.9009
O -14.1272 16.1602 11.0656
O -12.1974 17.4538 10.1487
O -19.6687 12.7406 14.2032
Si -20.7994 13.936 14.1911
Si -18.1773 12.0682 14.1813
O -17.3495 15.7533 14.2031
Si -18.7943 16.5408 14.191
Si -16.318 14.4835 14.1811
O -18.6049 17.479 15.5675
O -20.1012 15.4727 14.19
O -18.6045 17.4793 12.8153
O -15.6666 14.4204 15.6532
O -17.0095 13.0924 13.8179
O -15.3689 14.7372 12.9011
O -21.778 8.65822 11.451
Si -23.1202 9.61006 11.4388
Si -20.1841 8.28926 11.429
O -20.0906 12.0648 11.4512
Si -21.6612 12.5555 11.439
Si -18.8311 11.0206 11.4291
O -21.6584 13.5126 12.8155
O -22.735 11.2533 11.4378
O -21.658 13.5131 10.0633
O -18.1799 11.0858 12.9013
O -19.2381 9.52144 11.0658
O -17.9498 11.4546 10.1491
O -23.0506 4.24243 14.2029
Si -24.5526 4.91433 14.1907
Si -21.4154 4.19158 14.1808
O -22.06 7.91303 14.2031
Si -23.6961 8.08787 14.191
Si -20.6211 7.13441 14.1812
O -23.88 9.02726 15.5674
O -24.4951 6.60116 14.1897
O -23.8799 9.02767 12.8153
O -19.9952 7.3253 15.6533
O -20.728 5.58471 13.8177
O -19.8414 7.73182 12.9012
O -23.4376 -0.336725 11.4503
Si -25.0418 0.0293573 11.438
Si -21.8239 -0.0675377 11.4281
O -23.1819 3.45669 11.4509
Si -24.8207 3.30908 11.4385
Si -21.6188 2.97364 11.4286
O -25.1842 4.19446 12.8151
O -25.3145 1.69506 11.4372
O -25.1841 4.19502 10.0628
O -21.0421 3.28289 12.9008
O -21.4215 1.43289 11.0649
O -20.9705 3.71173 10.1487
O -22.9239 -4.90313 14.2018
Si -24.5687 -4.85705 14.1896
Si -21.3936 -4.32438 14.1797
O -23.4132 -1.13274 14.2025
Si -24.9917 -1.59728 14.1901
Si -21.7859 -1.30165 14.1803
O -25.5209 -0.7998 15.5666
O -25.1611 -3.27661 14.1887
O -25.521 -0.79929 12.8145
O -21.2806 -0.885966 15.6525
O -21.292 -2.77429 13.8164
O -21.294 -0.451271 12.9004
O -21.529 -9.28187 11.4488
Si -23.1512 -9.55746 11.4366
Si -20.1412 -8.41549 11.4266
O -22.7446 -5.67893 11.4499
Si -24.202 -6.44267 11.4374
Si -21.1156 -5.52729 11.4275
O -24.8768 -5.76371 12.8139
O -24.0404 -8.12281 11.4359
O -24.8769 -5.76324 10.0617
O -20.701 -5.02107 12.8997
O -20.3441 -6.87539 11.0634
O -20.7991 -4.59728 10.1476
O -19.3063 -13.304 14.2
Si -20.8435 -13.8908 14.1879
Si -18.1144 -12.1834 14.1779
O -21.2018 -10.0077 14.2012
Si -22.4822 -11.0411 14.1887
Si -19.6338 -9.54099 14.1788
O -23.2764 -10.5069 15.5652
O -21.9958 -12.6574 14.1872
O -23.2766 -10.5064 12.813
O -19.326 -8.96366 15.651
O -18.6141 -10.7126 13.8145
O -19.5049 -8.56704 12.8989
O -16.3414 -16.8146 11.4469
Si -17.7345 -17.6903 11.4348
Si -15.391 -15.4829 11.4248
O -18.8438 -13.9519 11.4481
Si -19.8979 -15.2154 11.4357
Si -17.397 -13.1881 11.4257
O -20.7811 -14.8464 12.8122
O -19.1054 -16.7056 11.4341
O -20.7813 -14.846 10.06
O -17.2078 -12.5618 12.898
O -16.1681 -14.1379 11.0615
O -17.4607 -12.2077 10.1459
O -12.748 -19.6789 14.1981
Si -13.9433 -20.8096 14.186
Si -12.0758 -18.1873 14.1759
O -15.7612 -17.3597 14.1994
Si -16.5484 -18.8046 14.1868
Si -14.4913 -16.3282 14.1769
O -17.4867 -18.6153 15.5633
O -15.4801 -20.1114 14.1853
O -17.4871 -18.6149 12.8112
O -14.4279 -15.6772 15.6492
O -13.1007 -17.02 13.8125
O -14.7452 -15.3792 12.8971
O -8.66454 -21.7866 11.4447
Si -9.61614 -23.129 11.4327
Si -8.29652 -20.1925 11.4227
O -12.0723 -20.1002 11.4462
Si -12.5624 -21.671 11.4337
Si -11.0284 -18.8406 11.4238
O -13.5196 -21.6684 12.8102
O -11.2596 -22.7442 11.4321
O -13.52 -21.6681 10.0581
O -11.0934 -18.1896 12.896
O -9.5294 -19.2475 11.0596
O -11.4627 -17.9594 10.1439
O -4.24835 -23.0563 14.1961
Si -4.91946 -24.5586 14.1841
Si -4.19835 -21.421 14.174
O -7.91959 -22.068 14.1971
Si -8.09363 -23.7042 14.1848
Si -7.14161 -20.6288 14.1749
O -9.03298 -23.8885 15.5613
O -6.60639 -24.5024 14.1834
O -9.03344 -23.8884 12.8092
O -7.3326 -20.003 15.6471
O -5.59199 -20.7348 13.8109
O -7.73954 -19.8494 12.895
O 0.330979 -23.4398 11.443
Si -0.034062 -25.0443 11.431
Si 0.060784 -21.8263 11.4211
O -3.46256 -23.1868 11.444
Si -3.31394 -24.8255 11.4318
Si -2.98048 -21.6234 11.4218
O -4.19915 -25.1897 12.8083
O -1.69955 -25.3181 11.4303
O -4.19975 -25.1896 10.0563
O -3.28994 -21.047 12.8941
O -1.43994 -21.4251 11.058
O -3.71902 -20.9757 10.1419
O 4.89693 -22.9226 14.1945
Si 4.85214 -24.5674 14.1823
Si 4.31725 -21.3926 14.1724
O 1.12721 -23.4147 14.1953
Si 1.59272 -24.9929 14.1831
Si 1.29485 -21.7872 14.1732
O 0.795448 -25.5227 15.5596
O 3.27215 -25.1611 14.1816
O 0.795067 -25.5227 12.8074
O 0.878669 -21.2822 15.6454
O 2.76703 -21.2918 13.8096
O 0.444124 -21.2961 12.8933
O 9.27456 -21.5247 11.4418
Si 9.5513 -23.1467 11.4297
Si 8.40758 -20.1372 11.4197
O 5.67301 -22.7426 11.4422
Si 6.43746 -24.1997 11.4301
Si 5.52009 -21.1137 11.4203
O 5.75903 -24.8749 12.8066
O 8.11744 -24.0371 11.4289
O 5.75853 -24.875 10.0545
O 5.01341 -20.6996 12.8924
O 6.86752 -20.3409 11.0566
O 4.58995 -20.7978 10.1403
O 13.2955 -19.2998 14.1938
Si 13.8833 -20.8367 14.1814
Si 12.1747 -18.108 14.1715
O 10.0006 -21.1965 14.194
Si 11.0345 -22.4766 14.1818
Si 9.53293 -19.6288 14.1718
O 10.5007 -23.2712 15.5582
O 12.6506 -21.9895 14.1805
O 10.5004 -23.2714 12.8061
O 8.95505 -19.3216 15.644
O 10.7037 -18.6078 13.8086
O 8.55899 -19.5005 12.8919
O 16.8056 -16.3338 11.4413
Si 17.6817 -17.7267 11.4291
Si 15.4739 -15.3834 11.419
O 13.9439 -18.8367 11.4414
Si 15.2075 -19.8906 11.4292
Si 13.1795 -17.3902 11.4194
O 14.8387 -20.774 12.8056
O 16.6974 -19.0977 11.4282
O 14.8385 -20.7742 10.0535
O 12.5528 -17.2015 12.8915