2640
 Atoms. Timestep: 97190
O 0.543979 -6.48971 -4.21861
Si 0.645678 -8.08588 -3.79593
Si 0.394847 -4.85493 -4.03881
O 0.571201 -6.54424 -6.72399
Si 0.654787 -8.16691 -7.04101
Si 0.420397 -4.93829 -7.07431
O 0.675389 -8.64788 -5.40642
O 0.378457 -4.33159 -5.55507
O 0.406404 -4.9554 -8.86134
O 0.404337 -5.39278 -1.46921
O 1.0904 4.60946 -3.31507
O 0.964464 4.02592 -7.56265
O 1.55149 6.38129 -9.03804
Si 1.91035 7.98374 -9.03983
Si 1.19545 4.92449 -9.74026
O 1.07106 6.68708 -1.81029
Si 1.86627 8.10302 -1.98073
Si 1.20393 5.07475 -1.69287
O 2.02641 8.49978 -0.332749
O 0.810165 3.30577 1.32304
O 3.27557 7.94852 -8.06495
O 0.652205 8.63564 -3.01109
O 3.24426 7.9029 -2.90796
O 0.661977 8.5734 -8.09275
O 4.15463 -4.98628 -4.18618
Si 5.25267 -6.1654 -3.85061
Si 3.15505 -3.71787 -3.9117
O 4.21254 -4.76279 -7.16222
Si 5.21522 -6.08391 -7.10905
Si 3.09147 -3.60553 -6.84439
O 5.57236 -6.46398 -5.49682
O 2.73802 -3.25625 -5.35103
O 3.43007 -4.04819 -9.36432
O 2.724 -3.41588 -1.36684
O -1.79664 4.32481 -3.33122
O -1.56969 3.8185 -7.53688
O -2.47779 6.05107 -9.06697
Si -3.13136 7.55385 -9.07952
Si -1.91208 4.64694 -9.72783
O -2.67473 5.89475 -1.59213
Si -3.10945 7.43203 -1.99217
Si -1.85936 4.44869 -1.65771
O -3.30306 7.96324 -0.390489
O -1.27905 3.13506 1.36721
O -2.01153 8.35035 -8.12509
O -4.44273 7.23199 -2.97802
O -1.97625 8.20762 -2.93811
O -4.48945 7.30853 -8.13518
O 6.26179 -1.54231 -4.2428
Si 7.82619 -1.86353 -3.83775
Si 4.68835 -1.12481 -4.00921
O 6.35998 -1.51625 -6.71937
Si 7.94192 -1.87635 -7.06218
Si 4.78455 -1.13734 -7.03726
O 8.40536 -1.97252 -5.43
O 4.17798 -1.02346 -5.52541
O 4.7714 -1.15228 -8.82202
O 3.99846 -0.923312 -1.37443
O -4.00705 2.44821 -3.32086
O -3.4913 2.15551 -7.56027
O -5.5731 3.39695 -9.04414
Si -6.97415 4.25296 -9.05184
Si -4.28642 2.6219 -9.74046
O -5.45103 3.90195 -1.81037
Si -7.00937 4.35541 -1.99012
Si -4.40225 2.66608 -1.69079
O -7.41696 4.52493 -0.346834
O -2.86491 1.76528 1.3279
O -6.52377 5.56002 -8.10916
O -7.83746 3.23834 -2.91937
O -6.56246 5.60871 -3.01213
O -7.90699 3.2586 -8.07462
O 6.00588 2.57608 -4.2552
Si 7.51975 3.15401 -3.90326
Si 4.50859 1.90122 -4.05961
O 6.04103 2.58966 -6.752
Si 7.54203 3.15845 -7.13095
Si 4.57535 1.92316 -7.0782
O 8.03191 3.32766 -5.5129
O 4.01712 1.69167 -5.56597
O 4.56192 1.88732 -8.87246
O 3.8566 1.83064 -1.468
O -4.67613 -0.393963 -3.30936
O -4.08397 -0.344264 -7.5504
O -6.50534 -0.541721 -9.0328
Si -8.14292 -0.656971 -9.04186
Si -5.00829 -0.421183 -9.72822
O -6.62219 -1.02877 -1.79939
Si -8.21786 -0.731209 -1.97998
Si -5.12828 -0.399331 -1.67929
O -8.65956 -0.700106 -0.337126
O -3.35262 -0.290022 1.33617
O -8.52371 0.655463 -8.07019
O -8.37882 -2.05386 -2.99901
O -8.45816 0.636361 -2.91285
O -8.32871 -2.02282 -8.09246
O 3.36939 5.55824 -4.27748
Si 4.21187 6.91854 -3.85914
Si 2.51987 4.15462 -4.09078
O 3.41344 5.60889 -6.75893
Si 4.25599 6.98462 -7.10887
Si 2.58469 4.23326 -7.10945
O 4.5071 7.39818 -5.47182
O 2.25755 3.70255 -5.60195
O 2.59038 4.21183 -8.90623
O 2.78027 4.64168 -1.53817
O -3.53765 -3.06157 -3.29927
O -3.11276 -2.69531 -7.50725
O -4.85535 -4.38005 -9.05573
Si -6.18494 -5.3377 -9.04516
Si -3.79286 -3.29003 -9.69535
O -5.04235 -4.04491 -1.56795
Si -6.11912 -5.22948 -1.95644
Si -3.65399 -3.13245 -1.62535
O -6.53105 -5.61865 -0.355834
O -2.54937 -2.21845 1.39454
O -7.2793 -4.48875 -8.11241
O -5.4549 -6.4349 -2.89643
O -7.21993 -4.45813 -2.94884
O -5.55848 -6.55127 -8.07538
O -0.428096 6.51221 -4.29822
Si -0.639533 8.11101 -3.93179
Si -0.392787 4.87429 -4.09489
O -0.520308 6.55887 -6.78771
Si -0.661626 8.16145 -7.15977
Si -0.38224 4.95345 -7.11398
O -0.729631 8.66045 -5.53634
O -0.334621 4.34611 -5.60281
O -0.371322 4.91636 -8.90854
O -0.233218 4.28857 -1.48489
O -1.08875 -4.61699 -3.27113
O -0.937786 -4.02461 -7.52294
O -1.51534 -6.3927 -8.98507
Si -1.88875 -7.99071 -8.9812
Si -1.15224 -4.94198 -9.69452
O -2.04775 -6.44993 -1.75819
Si -1.9833 -8.07312 -1.92152
Si -1.19839 -5.0717 -1.64642
O -2.01859 -8.50212 -0.274564
O -0.749459 -3.32666 1.35793
O -3.26949 -7.952 -8.03568
O -0.663627 -8.51943 -2.84573
O -3.30446 -8.00465 -2.9557
O -0.654362 -8.57318 -8.00463
O -4.3089 4.89881 -4.29444
Si -5.3009 6.17981 -3.94727
Si -3.17663 3.71095 -4.09643
O -4.25831 4.99608 -6.79462
Si -5.30592 6.21482 -7.17296
Si -3.21169 3.76944 -7.11575
O -5.63011 6.61459 -5.5543
O -2.82951 3.3036 -5.60265
O -3.1855 3.73715 -8.90967
O -2.82867 3.13282 -1.51568
O 1.78811 -4.3956 -3.20991
O 1.62444 -3.83448 -7.54793
O 2.26516 -6.27758 -9.04295
Si 3.13775 -7.66108 -8.97282
Si 1.96355 -4.79533 -9.68763
O 3.01649 -6.09565 -1.75006
Si 3.24279 -7.70247 -1.91967
Si 1.95504 -4.87534 -1.61562
O 3.3719 -8.13025 -0.272639
O 1.4468 -3.25342 1.32328
O 2.02336 -8.42165 -7.97141
O 4.52749 -7.37843 -2.95606
O 2.00632 -8.33952 -2.84982
O 4.45951 -7.2671 -8.02476
O -6.27119 1.47516 -4.28909
Si -7.823 1.85779 -3.86836
Si -4.67488 1.10267 -4.09515
O -6.33576 1.52443 -6.76594
Si -7.90898 1.8857 -7.11593
Si -4.77444 1.14186 -7.11201
O -8.37631 1.99276 -5.47804
O -4.1674 0.983346 -5.60654
O -4.75892 1.12951 -8.90832
O -5.18227 1.23244 -1.53908
O 3.96258 -2.42972 -3.20303
O 3.4916 -2.14541 -7.48953
O 5.8098 -3.1597 -9.06576
Si 7.03116 -4.24713 -8.98076
Si 4.34607 -2.67346 -9.63521
O 5.66965 -3.14268 -1.56189
Si 6.88876 -4.19807 -1.89596
Si 4.12282 -2.5418 -1.54642
O 7.37646 -4.5117 -0.299143
O 2.91576 -1.88815 1.39143
O 6.47949 -5.51993 -8.05317
O 7.82365 -3.23568 -2.89154
O 6.40521 -5.479 -2.85316
O 7.9667 -3.26702 -7.99074
O -6.03625 -2.46106 -4.27637
Si -7.50835 -3.13668 -3.92626
Si -4.49491 -1.89959 -4.07392
O -6.05949 -2.49523 -6.77137
Si -7.52725 -3.14667 -7.15191
Si -4.5585 -1.90729 -7.09272
O -7.99614 -3.37101 -5.53494
O -3.99852 -1.69099 -5.57899
O -4.52441 -1.90726 -8.88658
O -3.9299 -1.52059 -1.4954
O 4.63611 0.404106 -3.27284
O 4.10091 0.345996 -7.48636
O 6.54378 0.297352 -9.0626
Si 8.14516 0.642114 -9.00842
Si 5.01184 0.383987 -9.67121
O 6.42096 0.776921 -1.51109
Si 8.01457 0.699394 -1.91931
Si 4.78643 0.493993 -1.60199
O 8.58956 0.701661 -0.320361
O 3.37586 0.277478 1.41351
O 8.55625 -0.649465 -8.01919
O 8.24799 2.02108 -2.91553
O 8.36892 -0.630036 -2.85831
O 8.30592 2.02447 -8.08754
O -3.29719 -5.63305 -4.25587
Si -4.21633 -6.95606 -3.88353
Si -2.52893 -4.18661 -4.05537
O -3.42666 -5.60351 -6.74982
Si -4.26509 -6.98223 -7.10932
Si -2.56172 -4.24014 -7.07398
O -4.54671 -7.40221 -5.48783
O -2.23468 -3.73551 -5.56051
O -2.53712 -4.21724 -8.86702
O -2.12958 -3.72205 -1.44607
O 3.58451 3.10884 -3.30016
O 3.14196 2.69419 -7.54886
O 5.03124 4.2354 -9.02882
Si 6.23156 5.35632 -9.03151
Si 3.86403 3.28909 -9.72324
O 5.41361 4.05856 -1.79399
Si 6.34129 5.38718 -1.97363
Si 3.90895 3.46401 -1.67651
O 6.62836 5.7059 -0.325128
O 2.59253 2.21379 1.33489
O 7.32481 4.5222 -8.07311
O 5.53294 6.51541 -2.90856
O 7.37852 4.54634 -2.99022
O 5.56096 6.55059 -8.06422
O 0.543993 -6.4897 6.10114
Si 0.645685 -8.08587 6.52382
Si 0.394859 -4.85493 6.28094
O 0.571189 -6.54423 3.59576
Si 0.654781 -8.1669 3.27874
Si 0.420393 -4.93828 3.24544
O 0.675389 -8.64788 4.91332
O 0.378465 -4.33158 4.76468
O 0.406402 -4.95538 1.45841
O 0.40435 -5.39278 8.85054
O 1.09042 4.60947 7.00468
O 0.964472 4.02592 2.75709
O 1.5515 6.38129 1.28171
Si 1.91035 7.98374 1.27992
Si 1.19546 4.92449 0.579486
O 1.07109 6.6871 8.50945
Si 1.8663 8.10303 8.33901
Si 1.20396 5.07476 8.62687
O 2.02643 8.4998 9.98699
O 0.810149 3.3058 11.6428
O 3.27558 7.94852 2.2548
O 0.652227 8.63565 7.30865
O 3.24428 7.90291 7.41177
O 0.661986 8.5734 2.227
O 4.15464 -4.98628 6.13356
Si 5.25268 -6.1654 6.46913
Si 3.15507 -3.71787 6.40805
O 4.21253 -4.7628 3.15752
Si 5.21522 -6.08391 3.2107
Si 3.09147 -3.60553 3.47536
O 5.57237 -6.46398 4.82292
O 2.73803 -3.25624 4.96872
O 3.43008 -4.04818 0.955427
O 2.72401 -3.41588 8.9529
O -1.79662 4.32481 6.98852
O -1.56968 3.8185 2.78286
O -2.47768 6.05112 1.25277
Si -3.13135 7.55386 1.24023
Si -1.91208 4.64694 0.591915
O -2.67472 5.89474 8.72761
Si -3.10942 7.43203 8.32757
Si -1.85933 4.44869 8.66204
O -3.30303 7.96323 9.92926
O -1.27901 3.13506 11.687
O -2.01153 8.35036 2.19466
O -4.44271 7.23199 7.34173
O -1.97623 8.20762 7.38164
O -4.48944 7.30853 2.18456
O 6.26181 -1.54231 6.07694
Si 7.82621 -1.86354 6.482
Si 4.68836 -1.12481 6.31053
O 6.35999 -1.51625 3.60037
Si 7.94193 -1.87636 3.25756
Si 4.78456 -1.13734 3.28249
O 8.40537 -1.97252 4.88974
O 4.17799 -1.02347 4.79434
O 4.77142 -1.15228 1.49772
O 3.99847 -0.923313 8.94531
O -4.00703 2.44821 6.99888
O -3.4913 2.15552 2.75947
O -5.57311 3.39696 1.27561
Si -6.97415 4.25298 1.2679
Si -4.28643 2.62192 0.579285
O -5.45099 3.90195 8.50938
Si -7.00933 4.35541 8.32964
Si -4.40222 2.66607 8.62896
O -7.41692 4.52493 9.97293
O -2.86489 1.76522 11.6477
O -6.52377 5.56003 2.21059
O -7.83743 3.23834 7.40039
O -6.56243 5.60871 7.30762
O -7.90699 3.25862 2.24512
O 6.0059 2.57608 6.06455
Si 7.51977 3.15401 6.41648
Si 4.5086 1.90122 6.26014
O 6.04104 2.58966 3.56774
Si 7.54204 3.15845 3.1888
Si 4.57537 1.92316 3.24155
O 8.03193 3.32766 4.80685
O 4.01714 1.69167 4.75377
O 4.56193 1.88732 1.44729
O 3.85661 1.83064 8.85175
O -4.67612 -0.393967 7.01039
O -4.08397 -0.344251 2.76934
O -6.50535 -0.541707 1.28695
Si -8.14293 -0.656951 1.27788
Si -5.0083 -0.42117 0.591522
O -6.62218 -1.02877 8.52035
Si -8.21785 -0.731207 8.33976
Si -5.12826 -0.399334 8.64046
O -8.65955 -0.70011 9.98262
O -3.35262 -0.290048 11.6559
O -8.52371 0.655483 2.24956
O -8.37881 -2.05385 7.32074
O -8.45814 0.636366 7.4069
O -8.32872 -2.0228 2.22729
O 3.36941 5.55824 6.04226
Si 4.21189 6.91854 6.4606
Si 2.51989 4.15462 6.22896
O 3.41345 5.60889 3.56082
Si 4.256 6.98462 3.21088
Si 2.5847 4.23326 3.21029
O 4.50712 7.39818 4.84793
O 2.25756 3.70255 4.71779
O 2.59039 4.21183 1.41352
O 2.7803 4.64169 8.78157
O -3.53764 -3.06158 7.02047
O -3.11277 -2.69529 2.8125
O -4.8553 -4.38012 1.26398
Si -6.18494 -5.33768 1.27459
Si -3.79287 -3.29002 0.624399
O -5.04235 -4.04491 8.7518
Si -6.11912 -5.22948 8.36331
Si -3.65398 -3.13245 8.69439
O -6.53105 -5.61865 9.96391
O -2.54937 -2.21846 11.7143
O -7.27929 -4.48872 2.20733
O -5.45489 -6.4349 7.42332
O -7.21993 -4.45813 7.37091
O -5.55849 -6.55126 2.24438
O -0.428078 6.51222 6.02152
Si -0.639513 8.11101 6.38795
Si -0.392766 4.8743 6.22486
O -0.520317 6.55887 3.53203
Si -0.661618 8.16146 3.15997
Si -0.382232 4.95345 3.20577
O -0.729617 8.66045 4.78341
O -0.334601 4.34611 4.71694
O -0.371312 4.91635 1.41121
O -0.23319 4.28858 8.83485
O -1.08874 -4.61699 7.04861
O -0.937791 -4.0246 2.79681
O -1.51533 -6.39268 1.33468
Si -1.88876 -7.99069 1.33855
Si -1.15224 -4.94196 0.625232
O -2.04774 -6.44993 8.56155
Si -1.9833 -8.07312 8.39822
Si -1.19838 -5.0717 8.67333
O -2.01858 -8.50212 10.0452
O -0.749449 -3.32667 11.6777
O -3.2695 -7.95197 2.28406
O -0.66362 -8.51943 7.47402
O -3.30445 -8.00465 7.36404
O -0.654369 -8.57316 2.31511
O -4.30888 4.8988 6.02531
Si -5.30088 6.17981 6.37248
Si -3.17661 3.71095 6.22332
O -4.25831 4.99608 3.52513
Si -5.30591 6.21482 3.14679
Si -3.21168 3.76945 3.204
O -5.63009 6.61459 4.76545
O -2.82949 3.30361 4.71709
O -3.1855 3.73716 1.41008
O -2.82864 3.13282 8.80406
O 1.78812 -4.3956 7.10984
O 1.62444 -3.83447 2.77182
O 2.26515 -6.27756 1.2768
Si 3.13774 -7.66107 1.34693
Si 1.96354 -4.79531 0.632119
O 3.0165 -6.09566 8.56969
Si 3.24279 -7.70247 8.40007
Si 1.95505 -4.87534 8.70412
O 3.37191 -8.13025 10.0471
O 1.44681 -3.25343 11.643
O 2.02336 -8.42164 2.34833
O 4.5275 -7.37843 7.36369
O 2.00633 -8.33952 7.46992
O 4.45951 -7.26709 2.29498
O -6.27117 1.47516 6.03066
Si -7.82299 1.8578 6.45139
Si -4.67487 1.10267 6.2246
O -6.33576 1.52446 3.55381
Si -7.90898 1.88572 3.20382
Si -4.77444 1.14188 3.20774
O -8.3763 1.99277 4.84171
O -4.16739 0.983346 4.7132
O -4.75892 1.12953 1.41142
O -5.18224 1.23243 8.78067
O 3.9626 -2.42972 7.11671
O 3.49161 -2.14541 2.83022
O 5.80981 -3.1597 1.25399
Si 7.03117 -4.24713 1.33899
Si 4.34608 -2.67345 0.684536
O 5.66966 -3.14268 8.75785
Si 6.88877 -4.19807 8.42379
Si 4.12283 -2.54181 8.77332
O 7.37647 -4.51171 10.0206
O 2.91577 -1.88815 11.7112
O 6.47949 -5.51993 2.26658
O 7.82366 -3.23569 7.4282
O 6.40522 -5.479 7.46659
O 7.96671 -3.26702 2.329
O -6.03624 -2.46107 6.04338
Si -7.50834 -3.13668 6.39349
Si -4.4949 -1.8996 6.24583
O -6.05951 -2.49518 3.54838
Si -7.52725 -3.14665 3.16783
Si -4.55851 -1.90727 3.22703
O -7.99614 -3.371 4.78481
O -3.99852 -1.691 4.74076
O -4.52442 -1.90725 1.43317
O -3.92988 -1.52059 8.82435
O 4.63613 0.404104 7.0469
O 4.10093 0.345995 2.83339
O 6.54379 0.297359 1.25716
Si 8.14517 0.642114 1.31133
Si 5.01185 0.383987 0.648531
O 6.42098 0.77692 8.80865
Si 8.01458 0.69939 8.40043
Si 4.78644 0.493992 8.71776
O 8.58957 0.701659 9.99939
O 3.37587 0.277472 11.7333
O 8.55626 -0.649467 2.30056
O 8.248 2.02108 7.40421
O 8.36893 -0.63004 7.46143
O 8.30593 2.02447 2.2322
O -3.29717 -5.63305 6.06388
Si -4.21633 -6.95606 6.43621
Si -2.52892 -4.18661 6.26437
O -3.42668 -5.60348 3.56993
Si -4.2651 -6.98221 3.21043
Si -2.56173 -4.24013 3.24577
O -4.54671 -7.4022 4.83192
O -2.23467 -3.73551 4.75924
O -2.53712 -4.21722 1.45272
O -2.12957 -3.72206 8.87367
O 3.58453 3.10884 7.01959
O 3.14197 2.69419 2.77089
O 5.03126 4.23539 1.29092
Si 6.23157 5.35632 1.28823
Si 3.86404 3.28909 0.596505
O 5.41363 4.05856 8.52575
Si 6.34131 5.38718 8.34612
Si 3.90897 3.46401 8.64323
O 6.62837 5.7059 9.99462
O 2.59253 2.21379 11.6546
O 7.32482 4.5222 2.24663
O 5.53296 6.51541 7.41119
O 7.37854 4.54633 7.32953
O 5.56097 6.55059 2.25553
O 0.543999 -6.48971 16.4209
Si 0.645694 -8.08588 16.8436
Si 0.394864 -4.85493 16.6007
O 0.571204 -6.54423 13.9155
Si 0.654791 -8.16691 13.5985
Si 0.420402 -4.93828 13.5652
O 0.675399 -8.64788 15.2331
O 0.37847 -4.33159 15.0844
O 0.406413 -4.95539 11.7782
O 0.404356 -5.39278 19.1703
O 1.0904 4.60946 17.3244
O 0.964476 4.02591 13.0768
O 1.55158 6.3813 11.6014
Si 1.91039 7.98375 11.5997
Si 1.19546 4.92452 10.8992
O 1.07106 6.68709 18.8292
Si 1.86627 8.10302 18.6587
Si 1.20394 5.07475 18.9466
O 2.0264 8.4998 20.3067
O 0.810124 3.3058 21.9625
O 3.27561 7.94853 12.5745
O 0.652202 8.63564 17.6284
O 3.24426 7.9029 17.7315
O 0.662006 8.57339 12.5467
O 4.15464 -4.98628 16.4533
Si 5.25269 -6.1654 16.7889
Si 3.15507 -3.71787 16.7278
O 4.21254 -4.76281 13.4773
Si 5.21523 -6.08391 13.5304
Si 3.09148 -3.60553 13.7951
O 5.57238 -6.46398 15.1427
O 2.73803 -3.25625 15.2885
O 3.43009 -4.04819 11.2752
O 2.72402 -3.41589 19.2726
O -1.79665 4.3248 17.3083
O -1.56969 3.81849 13.1026
O -2.47871 6.05066 11.5726
Si -3.13141 7.55382 11.56
Si -1.91205 4.64694 10.9117
O -2.67472 5.89475 19.0474
Si -3.10943 7.43202 18.6473
Si -1.85935 4.44868 18.9818
O -3.30304 7.96323 20.249
O -1.27903 3.13506 22.0067
O -2.01148 8.35025 12.5143
O -4.44273 7.23198 17.6615
O -1.97625 8.20761 17.7014
O -4.48949 7.30864 12.5044
O 6.26181 -1.54231 16.3967
Si 7.82621 -1.86353 16.8017
Si 4.68836 -1.12481 16.6303
O 6.35999 -1.51625 13.9201
Si 7.94194 -1.87636 13.5773
Si 4.78457 -1.13735 13.6022
O 8.40537 -1.97252 15.2095
O 4.178 -1.02347 15.1141
O 4.77142 -1.15228 11.8175
O 3.99847 -0.923314 19.2651
O -4.00704 2.4482 17.3186
O -3.4913 2.15551 13.0792
O -5.57303 3.397 11.5954
Si -6.97411 4.25297 11.5877
Si -4.2864 2.62187 10.899
O -5.45101 3.90193 18.8291
Si -7.00935 4.35539 18.6494
Si -4.40224 2.66606 18.9487
O -7.41695 4.5249 20.2927
O -2.86491 1.76521 21.9674
O -6.52376 5.56003 12.5304
O -7.83745 3.23832 17.7201
O -6.56246 5.60869 17.6274
O -7.90696 3.25861 12.5649
O 6.00589 2.57609 16.3843
Si 7.51976 3.15401 16.7362
Si 4.50859 1.90122 16.5799
O 6.04104 2.58965 13.8875
Si 7.54204 3.15845 13.5085
Si 4.57536 1.92316 13.5613
O 8.03192 3.32766 15.1266
O 4.01713 1.69167 15.0735
O 4.56193 1.88732 11.767
O 3.8566 1.83063 19.1715
O -4.67613 -0.393982 17.3301
O -4.08397 -0.344266 13.0891
O -6.50535 -0.541729 11.6067
Si -8.14293 -0.65696 11.5976
Si -5.0083 -0.421193 10.9113
O -6.62219 -1.02879 18.8401
Si -8.21785 -0.731226 18.6595
Si -5.12827 -0.399351 18.9602
O -8.65956 -0.700131 20.3024
O -3.35263 -0.290053 21.9757
O -8.52371 0.655478 12.5693
O -8.37881 -2.05387 17.6405
O -8.45815 0.636345 17.7266
O -8.32872 -2.02281 12.547
O 3.36939 5.55824 16.362
Si 4.21187 6.91854 16.7803
Si 2.51987 4.15462 16.5487
O 3.41344 5.6089 13.8806
Si 4.256 6.98462 13.5306
Si 2.5847 4.23326 13.53
O 4.50712 7.39818 15.1677
O 2.25755 3.70255 15.0375
O 2.59039 4.21183 11.7333
O 2.78028 4.64169 19.1013
O -3.53764 -3.06159 17.3402
O -3.11276 -2.69531 13.1322
O -4.85526 -4.38017 11.5837
Si -6.18493 -5.3377 11.5943
Si -3.79286 -3.29003 10.9441
O -5.04234 -4.04493 19.0715
Si -6.11911 -5.22949 18.6831
Si -3.65398 -3.13247 19.0141
O -6.53104 -5.61866 20.2837
O -2.54937 -2.21846 22.034
O -7.27928 -4.48872 12.5271
O -5.45489 -6.43492 17.7431
O -7.21992 -4.45815 17.6907
O -5.55849 -6.55127 12.5641
O -0.428099 6.5122 16.3413
Si -0.639537 8.111 16.7077
Si -0.392789 4.87428 16.5446
O -0.520206 6.55885 13.8518
Si -0.661596 8.16141 13.4797
Si -0.382225 4.95344 13.5255
O -0.729641 8.66042 15.1031
O -0.334628 4.34609 15.0367
O -0.371323 4.91639 11.7309
O -0.233207 4.28857 19.1546
O -1.08874 -4.61699 17.3684
O -0.937783 -4.02461 13.1166
O -1.51533 -6.39269 11.6544
Si -1.88875 -7.9907 11.6583
Si -1.15223 -4.94196 10.945
O -2.04773 -6.44994 18.8813
Si -1.98329 -8.07313 18.718
Si -1.19837 -5.07171 18.9931
O -2.01857 -8.50213 20.3649
O -0.749449 -3.32667 21.9974
O -3.26949 -7.95198 12.6038
O -0.66361 -8.51944 17.7938
O -3.30444 -8.00466 17.6838
O -0.65436 -8.57317 12.6349
O -4.30891 4.8988 16.3451
Si -5.30091 6.17979 16.6923
Si -3.17663 3.71094 16.5431
O -4.25824 4.99616 13.8449
Si -5.30593 6.21486 13.4666
Si -3.21169 3.76945 13.5237
O -5.63013 6.61459 15.0852
O -2.82952 3.30359 15.0368
O -3.18547 3.73711 11.7298
O -2.82865 3.13281 19.1238
O 1.78812 -4.3956 17.4296
O 1.62444 -3.83447 13.0916
O 2.26516 -6.27757 11.5965
Si 3.13775 -7.66107 11.6667
Si 1.96355 -4.79532 10.9519
O 3.01651 -6.09566 18.8894
Si 3.2428 -7.70247 18.7198
Si 1.95505 -4.87534 19.0239
O 3.37192 -8.13025 20.3668
O 1.44681 -3.25342 21.9628
O 2.02337 -8.42164 12.6681
O 4.52751 -7.37843 17.6834
O 2.00634 -8.33952 17.7897
O 4.45952 -7.2671 12.6147
O -6.27118 1.47513 16.3504
Si -7.823 1.85778 16.7711
Si -4.67488 1.10265 16.5443
O -6.33576 1.52442 13.8736
Si -7.90897 1.88571 13.5236
Si -4.77444 1.14186 13.5275
O -8.3763 1.99276 15.1615
O -4.1674 0.983331 15.033
O -4.75892 1.1295 11.7312
O -5.18225 1.23242 19.1004
O 3.9626 -2.42972 17.4365
O 3.49162 -2.14541 13.15
O 5.80982 -3.1597 11.5737
Si 7.03118 -4.24713 11.6587
Si 4.34609 -2.67346 11.0043
O 5.66967 -3.14268 19.0776
Si 6.88878 -4.19807 18.7435
Si 4.12283 -2.54181 19.0931
O 7.37647 -4.5117 20.3403
O 2.91577 -1.88815 22.0309
O 6.4795 -5.51993 12.5863
O 7.82366 -3.23568 17.7479
O 6.40522 -5.479 17.7863
O 7.96672 -3.26703 12.6487
O -6.03624 -2.46108 16.3631
Si -7.50834 -3.1367 16.7132
Si -4.4949 -1.89961 16.5656
O -6.05951 -2.49519 13.8681
Si -7.52725 -3.14666 13.4876
Si -4.5585 -1.90729 13.5468
O -7.99613 -3.37101 15.1045
O -3.99851 -1.69101 15.0605
O -4.52442 -1.90727 11.7529
O -3.92989 -1.52061 19.1441
O 4.63612 0.404106 17.3666
O 4.10093 0.345991 13.1531
O 6.54379 0.297368 11.5769
Si 8.14518 0.642112 11.6311
Si 5.01185 0.383987 10.9683
O 6.42097 0.776908 19.1284
Si 8.01458 0.699394 18.7202
Si 4.78644 0.493992 19.0375
O 8.58956 0.701668 20.3191
O 3.37586 0.27748 22.053
O 8.55627 -0.64947 12.6203
O 8.24799 2.02108 17.724
O 8.36893 -0.630034 17.7812
O 8.30593 2.02447 12.552
O -3.29717 -5.63306 16.3836
Si -4.21632 -6.95607 16.756
Si -2.52891 -4.18662 16.5841
O -3.42668 -5.60349 13.8897
Si -4.26509 -6.98222 13.5302
Si -2.56172 -4.24014 13.5655
O -4.5467 -7.40221 15.1517
O -2.23467 -3.73552 15.079
O -2.53711 -4.21723 11.7725
O -2.12956 -3.72206 19.1934
O 3.58451 3.10884 17.3393
O 3.14197 2.69418 13.0906
O 5.03125 4.2354 11.6107
Si 6.23157 5.35631 11.608
Si 3.86403 3.28909 10.9162
O 5.41361 4.05856 18.8455
Si 6.34129 5.38718 18.6659
Si 3.90895 3.46401 18.963
O 6.62835 5.70591 20.3144
O 2.59251 2.21379 21.9744
O 7.32482 4.52219 12.5664
O 5.53294 6.51541 17.7309
O 7.37852 4.54634 17.6493
O 5.56098 6.55058 12.5753
O 0.544014 -6.48971 26.7406
Si 0.645711 -8.08588 27.1633
Si 0.394873 -4.85494 26.9204
O 0.571209 -6.54423 24.2352
Si 0.654803 -8.16691 23.9182
Si 0.420407 -4.93828 23.8849
O 0.675415 -8.64788 25.5528
O 0.378477 -4.33159 25.4042
O 0.406417 -4.95538 22.0979
O 0.404368 -5.39279 29.49
O 1.09037 4.60944 27.6442
O 0.964456 4.02591 23.3966
O 1.55157 6.3813 21.9212
Si 1.91036 7.98376 21.9194
Si 1.19543 4.92452 21.219
O 1.07103 6.68707 29.1489
Si 1.86623 8.10301 28.9785
Si 1.2039 5.07473 29.2664
O 2.02636 8.49978 30.6265
O 0.810169 3.30576 32.2823
O 3.27558 7.94854 22.8943
O 0.652165 8.63562 27.9481
O 3.24422 7.9029 28.0513
O 0.661981 8.57339 22.8665
O 4.15465 -4.98627 26.7731
Si 5.2527 -6.16539 27.1086
Si 3.15508 -3.71787 27.0475
O 4.21254 -4.7628 23.797
Si 5.21523 -6.0839 23.8502
Si 3.09148 -3.60552 24.1148
O 5.57239 -6.46397 25.4624
O 2.73804 -3.25624 25.6082
O 3.43009 -4.04818 21.5949
O 2.72402 -3.41589 29.5924
O -1.79668 4.32479 27.628
O -1.56971 3.81849 23.4224
O -2.47896 6.05056 21.8923
Si -3.13144 7.55381 21.8797
Si -1.91207 4.64693 21.2314
O -2.67476 5.89473 29.3671
Si -3.10947 7.43201 28.9671
Si -1.85939 4.44867 29.3015
O -3.30308 7.96322 30.5687
O -1.27905 3.13504 32.3264
O -2.0115 8.35022 22.8341
O -4.44277 7.23197 27.9812
O -1.97629 8.20759 28.0211
O -4.48953 7.30865 22.8241
O 6.2618 -1.5423 26.7164
Si 7.82621 -1.86352 27.1215
Si 4.68836 -1.1248 26.95
O 6.35999 -1.51624 24.2399
Si 7.94193 -1.87634 23.8971
Si 4.78456 -1.13733 23.922
O 8.40537 -1.9725 25.5292
O 4.17799 -1.02346 25.4338
O 4.77142 -1.15227 22.1372
O 3.99847 -0.923308 29.5848
O -4.00707 2.44819 27.6384
O -3.49132 2.15551 23.399
O -5.57304 3.397 21.9151
Si -6.97412 4.25296 21.9074
Si -4.28642 2.62186 21.2188
O -5.45105 3.90192 29.1489
Si -7.00939 4.35537 28.9691
Si -4.40227 2.66605 29.2685
O -7.41698 4.52488 30.6124
O -2.86488 1.76526 32.2871
O -6.52378 5.56002 22.8501
O -7.83748 3.2383 28.0399
O -6.5625 5.60868 27.9471
O -7.90697 3.25859 22.8846
O 6.00588 2.5761 26.704
Si 7.51975 3.15402 27.056
Si 4.50858 1.90123 26.8996
O 6.04103 2.58965 24.2072
Si 7.54203 3.15846 23.8283
Si 4.57535 1.92317 23.881
O 8.03191 3.32768 25.4463
O 4.01712 1.69168 25.3933
O 4.56191 1.88733 22.0868
O 3.85658 1.83064 29.4912
O -4.67613 -0.393995 27.6499
O -4.08398 -0.344273 23.4088
O -6.50536 -0.541745 21.9264
Si -8.14294 -0.65698 21.9174
Si -5.00831 -0.421206 21.231
O -6.62218 -1.02881 29.1599
Si -8.21785 -0.731251 28.9793
Si -5.12827 -0.399366 29.28
O -8.65954 -0.700152 30.6221
O -3.35259 -0.290065 32.2954
O -8.52372 0.655457 22.889
O -8.37881 -2.0539 27.9602
O -8.45816 0.636318 28.0464
O -8.32873 -2.02283 22.8668
O 3.36935 5.55824 26.6818
Si 4.21184 6.91854 27.1001
Si 2.51985 4.15461 26.8684
O 3.4134 5.60891 24.2003
Si 4.25598 6.98463 23.8504
Si 2.58467 4.23326 23.8498
O 4.50708 7.39818 25.4874
O 2.25753 3.70254 25.3573
O 2.59036 4.21183 22.053
O 2.78025 4.64168 29.4211
O -3.53763 -3.0616 27.66
O -3.11276 -2.69531 23.452
O -4.85528 -4.38016 21.9035
Si -6.18493 -5.33771 21.9141
Si -3.79286 -3.29004 21.2639
O -5.04234 -4.04492 29.3913
Si -6.1191 -5.22951 29.0028
Si -3.65397 -3.13247 29.3339
O -6.53102 -5.61868 30.6034
O -2.54933 -2.2185 32.3538
O -7.27928 -4.48874 22.8468
O -5.45487 -6.43493 28.0628
O -7.21992 -4.45817 28.0104
O -5.55848 -6.55128 22.8839
O -0.428128 6.51218 26.661
Si -0.639572 8.11098 27.0274
Si -0.392819 4.87426 26.8643
O -0.5202 6.55884 24.1715
Si -0.661617 8.16139 23.7994
Si -0.382246 4.95343 23.8453
O -0.729672 8.6604 25.4229
O -0.33466 4.34608 25.3564
O -0.37135 4.91639 22.0507
O -0.233243 4.28856 29.4743
O -1.08873 -4.617 27.6881
O -0.93778 -4.02461 23.4363
O -1.51532 -6.39269 21.9742
Si -1.88874 -7.9907 21.978
Si -1.15223 -4.94196 21.2647
O -2.04772 -6.44995 29.201
Si -1.98327 -8.07314 29.0377
Si -1.19836 -5.07172 29.3128
O -2.01855 -8.50215 30.6847
O -0.749425 -3.3267 32.3172
O -3.26948 -7.95199 22.9236
O -0.663592 -8.51945 28.1135
O -3.30443 -8.00467 28.0035
O -0.654348 -8.57317 22.9546
O -4.30894 4.89879 26.6648
Si -5.30095 6.17978 27.012
Si -3.17667 3.71093 26.8628
O -4.25824 4.99619 24.1646
Si -5.30596 6.21486 23.7863
Si -3.21171 3.76945 23.8435
O -5.63017 6.61458 25.405
O -2.82956 3.30358 25.3566
O -3.18549 3.73709 22.0496
O -2.82869 3.13279 29.4436
O 1.78813 -4.3956 27.7493
O 1.62445 -3.83447 23.4113
O 2.26517 -6.27756 21.9163
Si 3.13776 -7.66107 21.9864
Si 1.96356 -4.79531 21.2716
O 3.01652 -6.09566 29.2092
Si 3.24282 -7.70247 29.0396
Si 1.95507 -4.87534 29.3436
O 3.37195 -8.13026 30.6866
O 1.44682 -3.25345 32.2825
O 2.02338 -8.42164 22.9878
O 4.52752 -7.37843 28.0032
O 2.00636 -8.33952 28.1094
O 4.45953 -7.26709 22.9345
O -6.2712 1.47511 26.6702
Si -7.82302 1.85775 27.0909
Si -4.6749 1.10264 26.8641
O -6.33578 1.5244 24.1933
Si -7.90899 1.88569 23.8433
Si -4.77445 1.14185 23.8472
O -8.37632 1.99273 25.4812
O -4.16741 0.983324 25.3527
O -4.75894 1.12949 22.0509
O -5.18227 1.2324 29.4202
O 3.9626 -2.42971 27.7562
O 3.49162 -2.14541 23.4697
O 5.80983 -3.15969 21.8935
Si 7.03118 -4.24712 21.9785
Si 4.34609 -2.67345 21.324
O 5.66967 -3.14267 29.3973
Si 6.88878 -4.19806 29.0633
Si 4.12284 -2.5418 29.4128
O 7.37648 -4.51169 30.6601
O 2.91577 -1.88817 32.3507
O 6.47951 -5.51992 22.9061
O 7.82367 -3.23567 28.0677
O 6.40523 -5.47898 28.1061
O 7.96672 -3.26701 22.9685
O -6.03624 -2.4611 26.6829
Si -7.50834 -3.13672 27.033
Si -4.4949 -1.89963 26.8853
O -6.05951 -2.4952 24.1879
Si -7.52725 -3.14668 23.8073
Si -4.55851 -1.9073 23.8665
O -7.99613 -3.37103 25.4243
O -3.99852 -1.69102 25.3803
O -4.52442 -1.90728 22.0727
O -3.92988 -1.52062 29.4638
O 4.63611 0.404114 27.6864
O 4.10092 0.346001 23.4729
O 6.54378 0.297406 21.8967
Si 8.14517 0.642128 21.9508
Si 5.01184 0.384 21.288
O 6.42096 0.776953 29.4481
Si 8.01457 0.699411 29.0399
Si 4.78643 0.494003 29.3572
O 8.58956 0.701676 30.6389
O 3.37586 0.277474 32.3727
O 8.55626 -0.649454 22.94
O 8.24798 2.0211 28.0437
O 8.36892 -0.630018 28.1009
O 8.30593 2.02448 22.8717
O -3.29716 -5.63307 26.7034
Si -4.2163 -6.95608 27.0757
Si -2.5289 -4.18663 26.9039
O -3.42667 -5.6035 24.2094
Si -4.26508 -6.98223 23.8499
Si -2.56172 -4.24014 23.8853
O -4.54669 -7.40222 25.4714
O -2.23466 -3.73552 25.3987
O -2.53711 -4.21724 22.0922
O -2.12955 -3.72208 29.5132
O 3.5845 3.10885 27.6591
O 3.14195 2.69419 23.4104
O 5.03122 4.23541 21.9304
Si 6.23155 5.35632 21.9277
Si 3.86401 3.2891 21.236
O 5.41359 4.05857 29.1652
Si 6.34127 5.38719 28.9856
Si 3.90894 3.46402 29.2827
O 6.62835 5.70591 30.6341
O 2.59253 2.21379 32.2941
O 7.3248 4.5222 22.8861
O 5.53292 6.51542 28.0507
O 7.37851 4.54635 27.969
O 5.56095 6.55059 22.895
O 0.544044 -6.48977 37.0604
Si 0.645737 -8.08593 37.483
Si 0.394897 -4.85499 37.2402
O 0.571239 -6.54428 34.555
Si 0.65483 -8.16695 34.238
Si 0.420432 -4.93833 34.2047
O 0.675442 -8.64793 35.8725
O 0.378497 -4.33164 35.7239
O 0.406439 -4.95542 32.4176
O 0.404395 -5.39285 39.8098
O 1.09045 4.60949 37.9639
O 0.964471 4.02593 33.7163
O 1.55146 6.38129 32.2409
Si 1.91033 7.98373 32.2391
Si 1.19545 4.92448 31.5387
O 1.07111 6.68713 39.4687
Si 1.86632 8.10306 39.2982
Si 1.20399 5.07479 39.5861
O 2.02646 8.49984 40.9462
O 0.810144 3.30585 42.602
O 3.27556 7.94853 33.214
O 0.652236 8.63567 38.2679
O 3.24429 7.90294 38.371
O 0.661964 8.5734 33.1862
O 4.15468 -4.98629 37.0928
Si 5.25271 -6.16541 37.4284
Si 3.15509 -3.71789 37.3673
O 4.21258 -4.7628 34.1168
Si 5.21525 -6.08392 34.1699
Si 3.09149 -3.60555 34.4346
O 5.5724 -6.46399 35.7822
O 2.73804 -3.25627 35.928
O 3.4301 -4.0482 31.9147
O 2.72402 -3.41592 39.9121
O -1.79659 4.32481 37.9478
O -1.56967 3.81849 33.7421
O -2.47734 6.05125 32.212
Si -3.13134 7.55385 32.1995
Si -1.91209 4.64692 31.5512
O -2.67471 5.89473 39.6868
Si -3.10941 7.43202 39.2868
Si -1.8593 4.44869 39.6213
O -3.30302 7.96322 40.8885
O -1.27895 3.13509 42.6462
O -2.01156 8.35039 33.1539
O -4.44268 7.23197 38.301
O -1.97622 8.20762 38.3409
O -4.48942 7.30846 33.1438
O 6.2618 -1.54231 37.0362
Si 7.82621 -1.86353 37.4412
Si 4.68836 -1.12482 37.2698
O 6.35999 -1.51624 34.5596
Si 7.94193 -1.87635 34.2168
Si 4.78456 -1.13734 34.2417
O 8.40537 -1.97251 35.849
O 4.17799 -1.02347 35.7536
O 4.77142 -1.15229 32.457
O 3.99843 -0.923318 39.9045
O -4.00696 2.44816 37.9581
O -3.49127 2.15549 33.7187
O -5.57313 3.39689 32.2349
Si -6.97415 4.25292 32.2272
Si -4.28642 2.62189 31.5385
O -5.45093 3.90189 39.4686
Si -7.00927 4.35536 39.2889
Si -4.40215 2.66603 39.5882
O -7.41686 4.52488 40.9322
O -2.86483 1.76518 42.6069
O -6.52376 5.55998 33.1698
O -7.83737 3.23828 38.3596
O -6.56239 5.60866 38.2669
O -7.90698 3.25856 33.2044
O 6.00589 2.57608 37.0238
Si 7.51975 3.15401 37.3757
Si 4.50859 1.90122 37.2194
O 6.04103 2.58966 34.527
Si 7.54203 3.15846 34.148
Si 4.57535 1.92316 34.2008
O 8.03191 3.32767 35.7661
O 4.01713 1.69167 35.713
O 4.56192 1.88732 32.4065
O 3.85661 1.83065 39.811
O -4.67605 -0.394019 37.9696
O -4.08393 -0.344296 33.7286
O -6.50532 -0.541748 32.2462
Si -8.1429 -0.657002 32.2371
Si -5.00827 -0.421216 31.5508
O -6.6221 -1.02883 39.4796
Si -8.21777 -0.73127 39.299
Si -5.12818 -0.39939 39.5997
O -8.65948 -0.700171 40.9419
O -3.35255 -0.290086 42.6152
O -8.52367 0.655424 33.2088
O -8.37874 -2.05391 38.28
O -8.45807 0.636304 38.3662
O -8.32868 -2.02286 33.1865
O 3.36944 5.55825 37.0015
Si 4.2119 6.91856 37.4198
Si 2.51991 4.15464 37.1882
O 3.41344 5.60891 34.52
Si 4.25599 6.98464 34.1701
Si 2.5847 4.23327 34.1695
O 4.50712 7.3982 35.8071
O 2.25757 3.70256 35.677
O 2.59039 4.21183 32.3727
O 2.78032 4.64171 39.7408
O -3.53759 -3.06164 37.9797
O -3.11272 -2.69535 33.7717
O -4.85518 -4.38028 32.2232
Si -6.18489 -5.33774 32.2338
Si -3.79283 -3.29006 31.5836
O -5.04229 -4.04498 39.711
Si -6.11906 -5.22954 39.3225
Si -3.65393 -3.13253 39.6536
O -6.531 -5.61871 40.9232
O -2.54931 -2.21853 42.6735
O -7.27922 -4.48876 33.1666
O -5.45484 -6.43498 38.3826
O -7.21987 -4.4582 38.3301
O -5.55845 -6.55132 33.2036
O -0.428072 6.51223 36.9808
Si -0.639505 8.11103 37.3472
Si -0.392743 4.87431 37.1841
O -0.520366 6.55888 34.4913
Si -0.661637 8.16147 34.1192
Si -0.382235 4.95346 34.165
O -0.729617 8.66047 35.7427
O -0.334577 4.34613 35.6762
O -0.371313 4.91634 32.3704
O -0.233153 4.2886 39.7941
O -1.0887 -4.61706 38.0078