2880
 Atoms. Timestep: 46135
O 12.4907 3.83529 3.22851
Si 13.9966 4.44735 3.52247
Si 10.8694 3.59974 3.35297
O 13.0743 1.35964 3.9096
Si 14.7128 1.32523 3.81408
Si 11.56 0.769474 4.08449
O 15.2174 0.578954 5.22125
O 14.8614 3.00504 3.67579
O 15.2465 0.470579 2.4825
O 11.2456 0.372359 5.62112
O 10.6694 2.04537 3.69013
O 11.3038 -0.282794 2.88467
O 10.6541 8.68633 0.655053
Si 12.2492 9.07867 0.798655
Si 9.29578 7.76436 0.650785
O 12.078 5.2067 0.824393
Si 13.4819 6.05121 0.803796
Si 10.4742 4.95021 0.667308
O 14.2227 5.39469 2.15752
O 13.2283 7.71277 0.846722
O 14.1408 5.45271 64.9685
O 10.2216 3.95005 1.91406
O 9.58636 6.23553 1.02343
O 10.1672 4.44852 64.7383
O 8.41035 12.2544 3.9529
Si 9.70613 13.2688 3.86679
Si 7.74806 11.1722 5.34287
O 10.3037 9.46529 3.38184
Si 11.5185 10.5715 3.52989
Si 8.72975 9.0122 3.33308
O 12.3336 10.0278 4.87619
O 10.9763 12.1662 3.67269
O 12.3143 10.0877 2.13384
O 8.53693 8.0313 4.59783
O 7.89111 10.3423 3.70842
O 8.44644 8.38129 1.87859
O 5.23641 13.3043 0.603689
Si 5.20132 14.9153 0.914666
Si 4.77257 11.7502 0.779
O 7.33981 13.1255 1.79199
Si 8.33918 14.3004 1.20728
Si 7.20077 11.6983 2.61516
O 9.32374 14.2265 2.55818
O 6.87283 15.1464 1.02019
O 9.27135 13.9791 -0.139501
O 6.51019 11.6945 4.21344
O 5.95986 11.1442 1.68456
O 7.96788 10.9129 1.40995
O 0.610917 13.2982 4.18492
Si 0.26855 14.8859 3.91947
Si 0.402465 11.6731 4.20495
O 3.21571 13.3786 3.8313
Si 3.48177 14.9956 3.67359
Si 3.31144 11.7837 3.45727
O 4.44371 15.39 4.98566
O 1.85556 15.4558 3.77475
O 4.30088 15.3441 2.25736
O 4.27409 11.221 4.6393
O 1.87238 11.1644 3.80484
O 3.6095 11.5728 1.8845
O -3.95755 12.4372 0.547515
Si -4.51795 13.9662 0.844837
Si -3.67929 10.8188 0.677303
O -1.45305 13.048 1.27209
Si -1.39629 14.6821 1.15374
Si -0.848545 11.5384 1.40613
O -0.681065 15.1895 2.57717
O -3.07267 14.8277 0.976992
O -0.504054 15.1952 -0.160558
O -0.51355 11.2086 2.95655
O -2.10427 10.6496 0.941231
O 0.275406 11.3393 0.261711
O -8.28264 10.8667 3.76767
Si -9.12348 12.2725 3.58441
Si -7.73746 9.34371 3.47561
O -5.73912 11.8686 3.67862
Si -6.12995 13.4627 3.59715
Si -4.94066 10.4485 3.4823
O -5.4536 14.1747 4.95435
O -7.81419 13.3394 3.57726
O -5.46229 14.0981 2.21098
O -3.97267 10.2667 4.761
O -6.1453 9.40109 3.66648
O -4.37632 10.1809 1.98916
O -12.4572 8.52809 1.4864
Si -13.4277 9.7839 1.10716
Si -11.3618 7.88738 2.51921
O -9.85415 10.1119 0.501138
Si -10.6866 11.4845 0.862817
Si -9.05138 8.71181 0.781593
O -10.0608 12.2499 2.20592
O -12.312 11.0434 0.979058
O -10.1672 12.2947 65.0654
O -7.94663 8.88228 1.94254
O -10.086 7.74765 1.53548
O -8.47711 8.36094 64.8921
O -13.3604 4.66555 3.40484
Si -14.8998 5.22685 3.55136
Si -11.7423 4.86526 3.31216
O -12.6951 7.97876 3.89146
Si -14.2806 8.42128 3.81957
Si -11.6166 7.28693 5.29314
O -14.2565 9.3019 5.23546
O -15.0236 6.90726 3.67769
O -14.2947 9.43337 2.49588
O -11.6884 6.51227 6.86516
O -11.4664 6.42392 3.65178
O -10.7239 8.22302 4.10347
O -13.3311 0.773104 1.16402
Si -14.9156 0.345941 1.06946
Si -11.7158 0.577899 1.33977
O -13.3524 3.34421 0.601917
Si -14.9879 3.55288 0.812817
Si -11.7042 3.49714 0.607325
O -15.401 4.49448 2.13023
O -15.4688 1.93953 0.943289
O -15.4217 4.38637 65.0099
O -11.2568 4.44251 1.83556
O -11.1494 2.03523 0.970103
O -11.2075 3.90511 64.7044
O -12.5024 -3.86036 3.20768
Si -14.0074 -4.47342 3.50388
Si -10.881 -3.62589 3.33195
O -13.0843 -1.38977 3.91692
Si -14.7218 -1.35164 3.80436
Si -11.5689 -0.798356 4.07582
O -15.229 -0.604117 5.21041
O -14.8717 -3.03097 3.66039
O -15.251 -0.494957 2.47254
O -11.2477 -0.398084 5.61026
O -10.6797 -2.07293 3.67465
O -11.3185 0.255819 2.8767
O -10.6625 -8.71097 0.635954
Si -12.2574 -9.10402 0.779841
Si -9.30456 -7.78842 0.631912
O -12.0885 -5.23259 0.805885
Si -13.4922 -6.07733 0.785114
Si -10.4851 -4.97542 0.646166
O -14.2335 -5.42046 2.13854
O -13.2375 -7.73875 0.828224
O -14.1506 -5.47938 64.9494
O -10.2337 -3.9739 1.89218
O -9.59639 -6.25968 1.00384
O -10.1794 -4.47628 64.716
O -8.41607 -12.2777 3.93389
Si -9.7115 -13.2926 3.8479
Si -7.75394 -11.1952 5.32381
O -10.3111 -9.48968 3.36316
Si -11.5256 -10.5964 3.51108
Si -8.73743 -9.03581 3.31418
O -12.3413 -10.0532 4.85726
O -10.9823 -12.1908 3.6539
O -12.3217 -10.1131 2.115
O -8.54521 -8.05484 4.57897
O -7.89781 -10.3653 3.68937
O -8.45472 -8.4046 1.85971
O -5.24071 -13.3259 0.585787
Si -5.2058 -14.9369 0.897226
Si -4.77754 -11.7716 0.761168
O -7.34531 -13.1479 1.77241
Si -8.34418 -14.3236 1.18842
Si -7.20678 -11.7209 2.59597
O -9.32879 -14.2501 2.53925
O -6.87722 -15.1688 1.00233
O -9.27649 -14.0031 -0.1585
O -6.51615 -11.7169 4.19414
O -5.96541 -11.1662 1.6664
O -7.97467 -10.9359 1.39104
O -0.613409 -13.3182 4.18005
Si -0.273609 -14.9052 3.90665
Si -0.408604 -11.6926 4.19105
O -3.22027 -13.3995 3.81354
Si -3.48646 -15.0165 3.65641
Si -3.31667 -11.8047 3.43953
O -4.44854 -15.4112 4.96813
O -1.86007 -15.4756 3.75942
O -4.30488 -15.3653 2.2398
O -4.28006 -11.2426 4.62132
O -1.8781 -11.185 3.78836
O -3.61456 -11.5938 1.86672
O 3.95653 -12.454 0.543455
Si 4.51315 -13.9848 0.83952
Si 3.6756 -10.8358 0.673968
O 1.4458 -13.0659 1.2477
Si 1.39076 -14.7006 1.14027
Si 0.842102 -11.5568 1.39119
O 0.676173 -15.2066 2.56416
O 3.06756 -14.8459 0.968243
O 0.500174 -15.2164 -0.174176
O 0.508601 -11.2307 2.94267
O 2.0995 -10.6675 0.931766
O -0.280361 -11.353 0.246024
O 8.27942 -10.8906 3.767
Si 9.11993 -12.2963 3.5821
Si 7.73606 -9.36762 3.47254
O 5.7381 -11.8875 3.66704
Si 6.12522 -13.4828 3.59161
Si 4.93757 -10.4676 3.4783
O 5.44843 -14.1929 4.94914
O 7.80965 -13.3619 3.57341
O 5.45655 -14.1187 2.20612
O 3.97113 -10.2855 4.75777
O 6.14363 -9.42177 3.66213
O 4.36858 -10.1973 1.98758
O 12.4537 -8.55469 1.48797
Si 13.4254 -9.80974 1.1086
Si 11.3593 -7.91236 2.52109
O 9.86091 -10.1316 0.49778
Si 10.6846 -11.5092 0.860665
Si 9.05168 -8.73548 0.779212
O 10.0568 -12.2735 2.20333
O 12.3104 -11.0698 0.979296
O 10.1636 -12.3188 65.0636
O 7.94575 -8.91016 1.93833
O 10.083 -7.77136 1.5381
O 8.47757 -8.38456 64.8895
O 13.3575 -4.6902 3.40717
Si 14.8968 -5.25167 3.5544
Si 11.7395 -4.89011 3.31373
O 12.6933 -8.00353 3.8929
Si 14.2786 -8.4465 3.82084
Si 11.6156 -7.31141 5.29483
O 14.2543 -9.32737 5.23658
O 15.0211 -6.93211 3.68011
O 14.2926 -9.4586 2.49709
O 11.6862 -6.53815 6.86764
O 11.4643 -6.4488 3.65359
O 10.7222 -8.24791 4.10574
O 13.3257 -0.802071 1.19096
Si 14.9085 -0.371747 1.08048
Si 11.7089 -0.60635 1.35
O 13.3485 -3.36965 0.60191
Si 14.9837 -3.57795 0.815708
Si 11.7004 -3.52323 0.608287
O 15.3972 -4.5196 2.13289
O 15.4632 -1.9644 0.948795
O 15.4178 -4.41148 65.0128
O 11.2541 -4.46893 1.83668
O 11.1442 -2.0625 0.973648
O 11.2034 -3.93149 64.7055
O 12.4569 3.84349 8.80253
Si 13.9813 4.4616 8.98835
Si 10.8211 3.64381 8.84913
O 13.0408 1.35503 9.37261
Si 14.684 1.33367 9.27754
Si 11.5123 0.788394 9.54727
O 15.2117 0.59331 10.6799
O 14.8379 3.01233 9.13206
O 15.2358 0.481501 7.9512
O 11.2046 0.355842 11.0797
O 10.624 2.08426 9.19417
O 11.2496 -0.258816 8.33816
O 10.7734 8.32254 5.9479
Si 12.237 9.05733 6.22812
Si 9.24478 7.69517 6.00557
O 11.8682 5.68518 6.40265
Si 13.4562 6.07426 6.26645
Si 10.446 4.93085 6.11351
O 14.1843 5.37918 7.60308
O 13.3044 7.75458 6.27964
O 14.0898 5.42297 4.87084
O 10.222 3.95214 7.37844
O 9.35724 6.10742 6.1862
O 10.2304 4.37705 4.6106
O 8.29721 12.012 9.45511
Si 9.52988 13.101 9.39188
Si 7.76633 10.8097 10.7715
O 10.3694 9.31539 8.809
Si 11.4922 10.5053 9.00036
Si 8.82655 8.78636 8.77568
O 12.3471 9.98805 10.3329
O 10.8557 12.0624 9.18446
O 12.2469 10.0615 7.56705
O 8.68207 7.85671 10.0891
O 7.92988 10.0718 9.15445
O 8.48688 8.21108 7.32219
O 4.57772 13.2713 6.24142
Si 5.17038 14.802 6.37747
Si 4.73886 11.6448 6.13316
O 7.89667 12.4463 6.70225
Si 8.33491 14.0348 6.6233
Si 7.15778 11.3861 8.10026
O 9.16459 14.0379 8.06605
O 6.85649 14.8419 6.47534
O 9.36568 14.0459 5.30871
O 6.45098 11.2929 9.71491
O 6.28243 11.2938 6.47313
O 8.04966 10.4633 6.89543
O 0.750972 13.2834 9.35698
Si 0.31836 14.8697 9.35384
Si 0.618437 11.6775 9.64421
O 3.40974 13.2832 8.87013
Si 3.52525 14.9251 9.10812
Si 3.5549 11.633 8.9349
O 4.41101 15.3765 10.4474
O 1.91454 15.4069 9.21938
O 4.38052 15.3609 7.73933
O 4.46263 11.2235 10.2128
O 2.07967 11.1021 9.29483
O 3.97242 11.1125 7.4589
O -3.88997 12.4754 6.15954
Si -4.55015 13.9714 6.35113
Si -3.74683 10.8453 6.25432
O -1.41952 13.0296 6.87149
Si -1.42326 14.6677 6.65806
Si -0.892848 11.4769 6.98295
O -0.655901 15.2112 8.04055
O -3.10126 14.8264 6.5151
O -0.593619 15.2182 5.31533
O -0.3504 11.1273 8.46934
O -2.22165 10.6157 6.70308
O 0.0532004 11.1709 5.70488
O -8.76695 10.5963 8.99132
Si -9.18191 12.1993 9.06796
Si -7.91653 9.18033 8.96606
O -5.54638 11.9391 9.3264
Si -6.17266 13.4329 9.09014
Si -5.12705 10.4014 8.96767
O -5.48877 14.1907 10.4236
O -7.83938 13.2098 9.09893
O -5.54886 14.0711 7.68257
O -4.08493 10.155 10.1856
O -6.35158 9.40092 9.23483
O -4.65669 10.2181 7.43118
O -12.2708 8.41045 6.64277
Si -13.3046 9.68948 6.54595
Si -11.2361 7.73201 8.08296
O -9.4727 10.3445 6.20417
Si -10.616 11.5301 6.3097
Si -8.99581 8.77799 6.1646
O -10.1092 12.325 7.68574
O -12.2081 10.9697 6.39379
O -10.1363 12.3306 4.9166
O -8.09912 8.55234 7.48904
O -10.3397 7.93216 6.47163
O -8.35499 8.49798 4.70862
O -13.3579 4.56859 8.8447
Si -14.865 5.20139 9.01635
Si -11.7381 4.72347 8.77134
O -12.5614 7.88275 9.41903
Si -14.1314 8.37393 9.29739
Si -11.6062 7.02537 10.7989
O -14.2434 9.3014 10.6731
O -14.9231 6.88528 9.1433
O -14.116 9.36938 7.9639
O -12.0978 6.11486 12.0614
O -11.4277 6.25827 9.16617
O -10.5881 7.98517 9.71732
O -13.3326 0.77935 6.7192
Si -14.9107 0.350075 6.54491
Si -11.7116 0.579609 6.81043
O -13.3522 3.37946 5.96869
Si -14.9803 3.55459 6.26204
Si -11.7012 3.49129 6.00992
O -15.3767 4.49367 7.58616
O -15.4586 1.94373 6.40902
O -15.4414 4.39449 4.89316
O -11.2418 4.35649 7.28883
O -11.155 2.01772 6.34929
O -11.19 4.0204 4.57347
O -12.4683 -3.86857 8.78092
Si -13.9921 -4.48733 8.96983
Si -10.8325 -3.66917 8.82795
O -13.0507 -1.38409 9.37953
Si -14.6931 -1.35969 9.26791
Si -11.5211 -0.816252 9.53834
O -15.2236 -0.618204 10.669
O -14.8479 -3.03786 9.11695
O -15.2405 -0.505707 7.94119
O -11.2066 -0.381169 11.0688
O -10.6341 -2.11096 9.17805
O -11.2633 0.232648 8.3299
O -10.7811 -8.34963 5.928
Si -12.2452 -9.08275 6.20932
Si -9.25359 -7.71945 5.98661
O -11.8792 -5.70996 6.38536
Si -13.4667 -6.10032 6.248
Si -10.4575 -4.95629 6.09274
O -14.1955 -5.40466 7.5842
O -13.3133 -7.78055 6.26125
O -14.0997 -5.44997 4.85167
O -10.2343 -3.97559 7.3564
O -9.36787 -6.13192 6.1675
O -10.2434 -4.40719 4.58782
O -8.30381 -12.0353 9.4362
Si -9.53589 -13.125 9.373
Si -7.77374 -10.8326 10.7526
O -10.3775 -9.33984 8.78996
Si -11.4997 -10.5303 8.98154
Si -8.83496 -8.80999 8.75676
O -12.3549 -10.0134 10.314
O -10.8624 -12.0871 9.16576
O -12.2546 -10.087 7.54818
O -8.69082 -7.88042 10.0702
O -7.93757 -10.0948 9.13555
O -8.49542 -8.23453 7.30336
O -4.58301 -13.2928 6.22396
Si -5.17517 -14.8238 6.36008
Si -4.74473 -11.6665 6.11524
O -7.90246 -12.4693 6.6833
Si -8.34012 -14.0579 6.60456
Si -7.16456 -11.4087 8.08141
O -9.1702 -14.0614 8.04703
O -6.86128 -14.8644 6.45754
O -9.37061 -14.0697 5.28975
O -6.45801 -11.3152 9.69615
O -6.2886 -11.3162 6.45459
O -8.05631 -10.4863 6.87618
O -0.760714 -13.3042 9.35337
Si -0.323351 -14.8893 9.34108
Si -0.624702 -11.6969 9.62999
O -3.41449 -13.3042 8.85307
Si -3.52985 -14.9462 9.09081
Si -3.56028 -11.6539 8.9169
O -4.41573 -15.3979 10.4298
O -1.91905 -15.4275 9.2034
O -4.3848 -15.3823 7.72185
O -4.46806 -11.2447 10.1949
O -2.08546 -11.1221 9.27741
O -3.97817 -11.1339 7.44084
O 3.88573 -12.4933 6.16218
Si 4.54581 -13.9904 6.34612
Si 3.74398 -10.8624 6.25131
O 1.41543 -13.0467 6.84475
Si 1.41814 -14.6862 6.6444
Si 0.887124 -11.4952 6.9677
O 0.651211 -15.2276 8.02748
O 3.0965 -14.8455 6.50607
O 0.589747 -15.2391 5.30175
O 0.34571 -11.1496 8.45529
O 2.21674 -10.6332 6.69369
O -0.0577893 -11.1864 5.68936
O 8.76882 -10.6184 8.98855
Si 9.17864 -12.2222 9.06582
Si 7.91611 -9.20427 8.96394
O 5.52753 -11.9641 9.31581
Si 6.16716 -13.4531 9.08475
Si 5.12342 -10.4206 8.96424
O 5.48436 -14.2102 10.419
O 7.83357 -13.2294 9.09598
O 5.54433 -14.0932 7.6775
O 4.08406 -10.1708 10.1838
O 6.352 -9.42644 9.23582
O 4.65005 -10.232 7.42942
O 12.2683 -8.43627 6.64394
Si 13.302 -9.71534 6.54668
Si 11.2326 -7.75903 8.08405
O 9.47019 -10.369 6.20114
Si 10.613 -11.5551 6.30753
Si 8.9936 -8.80232 6.16198
O 10.1055 -12.3496 7.68347
O 12.2053 -10.9952 6.39293
O 10.1329 -12.3553 4.91421
O 8.09645 -8.57719 7.48624
O 10.3375 -7.95728 6.47143
O 8.35423 -8.52187 4.70534
O 13.3539 -4.59491 8.84742
Si 14.8612 -5.22709 9.01936
Si 11.7343 -4.75038 8.77274
O 12.5581 -7.90942 9.4201
Si 14.1283 -8.4 9.2986
Si 11.603 -7.05235 10.8
O 14.2408 -9.32712 10.6745
O 14.9198 -6.91104 9.14556
O 14.113 -9.39543 7.96499
O 12.095 -6.14097 12.0617
O 11.424 -6.28524 9.1674
O 10.5849 -8.01241 9.71853
O 13.3269 -0.804976 6.74492
Si 14.9036 -0.376006 6.55606
Si 11.705 -0.607598 6.82104
O 13.3484 -3.40456 5.9705
Si 14.9762 -3.57971 6.26554
Si 11.6975 -3.51706 6.01184
O 15.3726 -4.51937 7.58912
O 15.4529 -1.96865 6.41533
O 15.4379 -4.41886 4.89625
O 11.2388 -4.38408 7.28977
O 11.1503 -2.04465 6.35463
O 11.1868 -4.04495 4.57473
O 12.4907 3.83529 14.1581
Si 13.9966 4.44735 14.452
Si 10.8694 3.59975 14.2825
O 13.0743 1.35964 14.8392
Si 14.7128 1.32523 14.7437
Si 11.56 0.769482 15.0141
O 15.2174 0.578964 16.1508
O 14.8614 3.00505 14.6053
O 15.2465 0.470577 13.4121
O 11.2456 0.372382 16.5507
O 10.6694 2.04538 14.6197
O 11.3038 -0.282788 13.8143
O 10.6541 8.68634 11.5846
Si 12.2492 9.07867 11.7282
Si 9.29575 7.76436 11.5804
O 12.078 5.20672 11.7539
Si 13.4819 6.05121 11.7334
Si 10.4742 4.95023 11.5969
O 14.2227 5.39468 13.0871
O 13.2283 7.71277 11.7763
O 14.1408 5.45273 10.3207
O 10.2216 3.95007 12.8436
O 9.58635 6.23553 11.953
O 10.1672 4.44856 10.0905
O 8.41034 12.2543 14.8825
Si 9.70613 13.2688 14.7964
Si 7.74805 11.1722 16.2724
O 10.3036 9.46528 14.3114
Si 11.5185 10.5715 14.4595
Si 8.72975 9.01221 14.2627
O 12.3336 10.0278 15.8058
O 10.9763 12.1662 14.6023
O 12.3143 10.0877 13.0634
O 8.53694 8.0313 15.5274
O 7.89109 10.3423 14.638
O 8.44644 8.38131 12.8082
O 5.23637 13.3043 11.5332
Si 5.20131 14.9153 11.8443
Si 4.77255 11.7502 11.7086
O 7.33978 13.1255 12.7216
Si 8.33915 14.3004 12.1368
Si 7.20078 11.6983 13.5447
O 9.32374 14.2265 13.4877
O 6.87282 15.1464 11.9498
O 9.27137 13.9791 10.7901
O 6.51017 11.6945 15.143
O 5.95986 11.1442 12.6141
O 7.96784 10.9129 12.3395
O 0.610913 13.2982 15.1145
Si 0.268537 14.886 14.849
Si 0.402451 11.6731 15.1345
O 3.2157 13.3786 14.7609
Si 3.48176 14.9956 14.6032
Si 3.31144 11.7837 14.3869
O 4.44369 15.39 15.9152
O 1.85556 15.4558 14.7043
O 4.30086 15.3441 13.1869
O 4.27408 11.221 15.5689
O 1.87238 11.1644 14.7344
O 3.60948 11.5728 12.8141
O -3.95757 12.4372 11.4771
Si -4.51796 13.9662 11.7744
Si -3.6793 10.8188 11.6069
O -1.45305 13.048 12.2017
Si -1.39629 14.682 12.0833
Si -0.848555 11.5384 12.3357
O -0.681075 15.1895 13.5067
O -3.07267 14.8276 11.9066
O -0.504065 15.1952 10.769
O -0.513564 11.2086 13.8861
O -2.10427 10.6496 11.8708
O 0.275395 11.3393 11.1913
O -8.28265 10.8667 14.6972
Si -9.12349 12.2725 14.514
Si -7.73747 9.34371 14.4052
O -5.73913 11.8686 14.6082
Si -6.12996 13.4627 14.5267
Si -4.94068 10.4485 14.4119
O -5.45361 14.1747 15.8839
O -7.81419 13.3394 14.5068
O -5.46231 14.0981 13.1406
O -3.97268 10.2667 15.6906
O -6.14531 9.40109 14.5961
O -4.37633 10.1809 12.9187
O -12.4572 8.52809 12.416
Si -13.4277 9.7839 12.0367
Si -11.3618 7.88737 13.4488
O -9.85416 10.1119 11.4307
Si -10.6866 11.4845 11.7924
Si -9.05139 8.71181 11.7112
O -10.0609 12.2499 13.1355
O -12.312 11.0434 11.9086
O -10.1672 12.2946 10.4176
O -7.94665 8.88228 12.8721
O -10.086 7.74766 12.4651
O -8.47712 8.36093 10.2442
O -13.3604 4.66555 14.3344
Si -14.8998 5.22685 14.4809
Si -11.7423 4.86526 14.2417
O -12.6951 7.97876 14.821
Si -14.2806 8.42128 14.7491
Si -11.6166 7.28694 16.2227
O -14.2565 9.30189 16.165
O -15.0236 6.90726 14.6073
O -14.2947 9.43336 13.4255
O -11.6884 6.51226 17.7947
O -11.4664 6.42392 14.5814
O -10.7239 8.22302 15.033
O -13.331 0.773095 12.0936
Si -14.9155 0.345945 11.999
Si -11.7158 0.577897 12.2693
O -13.3524 3.3442 11.5315
Si -14.9879 3.55288 11.7424
Si -11.7042 3.49713 11.5369
O -15.401 4.49448 13.0598
O -15.4688 1.93953 11.8729
O -15.4217 4.38637 10.3621
O -11.2568 4.44249 12.7651
O -11.1494 2.03523 11.8997
O -11.2075 3.9051 10.0566
O -12.5024 -3.86036 14.1373
Si -14.0074 -4.47342 14.4335
Si -10.881 -3.6259 14.2615
O -13.0843 -1.38978 14.8465
Si -14.7218 -1.35165 14.7339
Si -11.5689 -0.798363 15.0054
O -15.229 -0.604112 16.14
O -14.8717 -3.03097 14.59
O -15.251 -0.494953 13.4021
O -11.2477 -0.398085 16.5398
O -10.6797 -2.07295 14.6042
O -11.3185 0.255809 13.8063
O -10.6625 -8.71097 11.5655
Si -12.2574 -9.10401 11.7094
Si -9.30456 -7.78843 11.5615
O -12.0885 -5.23259 11.7354
Si -13.4922 -6.07732 11.7147
Si -10.4851 -4.97543 11.5757
O -14.2335 -5.42045 13.0681
O -13.2375 -7.73875 11.7578
O -14.1506 -5.47937 10.3016
O -10.2337 -3.97391 12.8218
O -9.59639 -6.25968 11.9334
O -10.1794 -4.47628 10.0682
O -8.41606 -12.2777 14.8635
Si -9.7115 -13.2926 14.7775
Si -7.75394 -11.1953 16.2534
O -10.3111 -9.48968 14.2927
Si -11.5256 -10.5964 14.4407
Si -8.73743 -9.03581 14.2438
O -12.3413 -10.0532 15.7868
O -10.9823 -12.1908 14.5835
O -12.3217 -10.1131 13.0446
O -8.54521 -8.05485 15.5085
O -7.89782 -10.3653 14.6189
O -8.45472 -8.40461 12.7893
O -5.24064 -13.3259 11.5153
Si -5.20581 -14.9369 11.8268
Si -4.77756 -11.7716 11.6907
O -7.3453 -13.1479 12.702
Si -8.34418 -14.3236 12.118
Si -7.20678 -11.7209 13.5255
O -9.32881 -14.2501 13.4688
O -6.87722 -15.1688 11.9319
O -9.27649 -14.0031 10.7711
O -6.51614 -11.7169 15.1237
O -5.96545 -11.1662 12.5959
O -7.97468 -10.936 12.3206
O -0.613402 -13.3182 15.1096
Si -0.273608 -14.9052 14.8362
Si -0.408622 -11.6926 15.1206
O -3.22022 -13.3995 14.7431
Si -3.48646 -15.0164 14.586
Si -3.31668 -11.8047 14.3691
O -4.44856 -15.4112 15.8977
O -1.86007 -15.4756 14.689
O -4.30487 -15.3653 13.1694
O -4.28008 -11.2426 15.5509
O -1.87811 -11.185 14.7179
O -3.61458 -11.5938 12.7963
O 3.95651 -12.4539 11.473
Si 4.51313 -13.9847 11.7691
Si 3.67559 -10.8358 11.6036
O 1.44577 -13.0659 12.1772
Si 1.39075 -14.7006 12.0698
Si 0.842092 -11.5568 12.3208
O 0.676169 -15.2066 13.4937
O 3.06755 -14.8459 11.8978
O 0.500168 -15.2165 10.7554
O 0.50859 -11.2307 13.8722
O 2.09948 -10.6675 11.8613
O -0.280366 -11.353 11.1756
O 8.27942 -10.8906 14.6966
Si 9.11993 -12.2963 14.5117
Si 7.73604 -9.36759 14.4021
O 5.73809 -11.8875 14.5966
Si 6.12522 -13.4828 14.5212
Si 4.93756 -10.4676 14.4079
O 5.44842 -14.1929 15.8787
O 7.80963 -13.3619 14.503
O 5.45654 -14.1187 13.1357
O 3.97112 -10.2855 15.6874
O 6.14362 -9.42175 14.5917
O 4.36857 -10.1973 12.9172
O 12.4537 -8.55467 12.4176
Si 13.4254 -9.80974 12.0382
Si 11.3593 -7.91236 13.4507
O 9.86089 -10.1316 11.4274
Si 10.6846 -11.5091 11.7902
Si 9.05168 -8.73546 11.7088
O 10.0568 -12.2735 13.1329
O 12.3104 -11.0698 11.9089
O 10.1636 -12.3188 10.4157
O 7.94574 -8.91013 12.8679
O 10.083 -7.77136 12.4677
O 8.47757 -8.38454 10.2417
O 13.3575 -4.69018 14.3368
Si 14.8968 -5.25166 14.484
Si 11.7395 -4.8901 14.2433
O 12.6933 -8.00354 14.8225
Si 14.2786 -8.44651 14.7504
Si 11.6156 -7.3114 16.2244
O 14.2543 -9.32738 16.1661
O 15.0211 -6.93211 14.6097
O 14.2926 -9.45861 13.4267
O 11.6862 -6.53815 17.7972
O 11.4643 -6.4488 14.5832
O 10.7222 -8.24791 15.0353
O 13.3257 -0.802018 12.1205
Si 14.9085 -0.371733 12.0101
Si 11.7089 -0.606321 12.2796
O 13.3485 -3.36969 11.5315
Si 14.9837 -3.57794 11.7453
Si 11.7003 -3.52322 11.5378
O 15.3972 -4.51958 13.0625
O 15.4632 -1.96439 11.8784
O 15.4178 -4.41147 10.3649
O 11.2541 -4.46893 12.7662
O 11.1442 -2.06247 11.9032
O 11.2034 -3.93151 10.0577
O 12.4569 3.84351 19.7321
Si 13.9813 4.4616 19.9179
Si 10.8211 3.64381 19.7787
O 13.0408 1.35502 20.3022
Si 14.6841 1.33367 20.2071
Si 11.5123 0.788399 20.4769
O 15.2117 0.593294 21.6094
O 14.8379 3.01234 20.0616
O 15.2358 0.481513 18.8808
O 11.2046 0.355851 22.0093
O 10.624 2.08426 20.1237
O 11.2496 -0.258828 19.2677
O 10.7734 8.32253 16.8775
Si 12.237 9.05734 17.1577
Si 9.24477 7.69518 16.9351
O 11.8682 5.68518 17.3322
Si 13.4562 6.07426 17.196
Si 10.446 4.93085 17.0431
O 14.1843 5.3792 18.5327
O 13.3044 7.75459 17.2092
O 14.0898 5.42296 15.8004
O 10.222 3.95215 18.308
O 9.35722 6.10743 17.1158
O 10.2304 4.37704 15.5402
O 8.29719 12.012 20.3847
Si 9.52987 13.101 20.3214
Si 7.7663 10.8097 21.7011
O 10.3694 9.31539 19.7386
Si 11.4922 10.5053 19.9299
Si 8.82653 8.78635 19.7053
O 12.3471 9.98805 21.2625
O 10.8557 12.0624 20.114
O 12.2469 10.0615 18.4966
O 8.68206 7.85669 21.0186
O 7.92986 10.0718 20.084
O 8.48687 8.21107 18.2518
O 4.57771 13.2713 17.171
Si 5.17036 14.8021 17.307
Si 4.73885 11.6448 17.0627
O 7.89667 12.4463 17.6318
Si 8.3349 14.0348 17.5529
Si 7.15776 11.3861 19.0298
O 9.16457 14.0379 18.9956
O 6.8565 14.8419 17.4049
O 9.36565 14.0459 16.2383
O 6.45096 11.2929 20.6445
O 6.28244 11.2938 17.4026
O 8.04966 10.4633 17.825
O 0.75096 13.2834 20.2866
Si 0.318353 14.8697 20.2834
Si 0.618428 11.6775 20.5738
O 3.40972 13.2832 19.7997
Si 3.52523 14.9251 20.0377
Si 3.55489 11.633 19.8645
O 4.411 15.3765 21.377
O 1.91453 15.4069 20.149
O 4.3805 15.3609 18.6689
O 4.46262 11.2234 21.1423
O 2.07966 11.1021 20.2244
O 3.97239 11.1125 18.3885
O -3.88997 12.4754 17.0891
Si -4.55015 13.9714 17.2807
Si -3.74684 10.8452 17.1839
O -1.41954 13.0296 17.801
Si -1.42328 14.6677 17.5876
Si -0.892871 11.4769 17.9125
O -0.655921 15.2112 18.9701
O -3.10127 14.8264 17.4447
O -0.593631 15.2182 16.2449
O -0.350407 11.1273 19.3989
O -2.22166 10.6157 17.6327
O 0.0531782 11.1709 16.6345
O -8.76695 10.5963 19.9209
Si -9.18193 12.1993 19.9975
Si -7.91654 9.18034 19.8956
O -5.5464 11.9391 20.256
Si -6.17268 13.4329 20.0197
Si -5.12706 10.4014 19.8972
O -5.48878 14.1907 21.3532
O -7.8394 13.2098 20.0285
O -5.54887 14.0711 18.6121
O -4.08495 10.155 21.1152
O -6.35159 9.40092 20.1644
O -4.65671 10.2181 18.3607
O -12.2708 8.41044 17.5723
Si -13.3046 9.68947 17.4755
Si -11.2361 7.73201 19.0125
O -9.47271 10.3445 17.1337
Si -10.616 11.5301 17.2393
Si -8.99582 8.77798 17.0942
O -10.1093 12.325 18.6153
O -12.2081 10.9697 17.3234
O -10.1363 12.3306 15.8462
O -8.09913 8.55235 18.4186
O -10.3397 7.93215 17.4012
O -8.35501 8.49798 15.6382
O -13.3579 4.56859 19.7743
Si -14.865 5.20138 19.9459
Si -11.7382 4.72347 19.7009
O -12.5614 7.88274 20.3486
Si -14.1314 8.37393 20.227
Si -11.6063 7.02536 21.7284
O -14.2434 9.3014 21.6027
O -14.9231 6.88527 20.0729
O -14.116 9.36938 18.8935
O -12.0978 6.11486 22.991
O -11.4277 6.25826 20.0957
O -10.5881 7.98516 20.6469
O -13.3326 0.779351 17.6488
Si -14.9107 0.350074 17.4745
Si -11.7116 0.579612 17.74
O -13.3522 3.37945 16.8983
Si -14.9803 3.55458 17.1916
Si -11.7012 3.4913 16.9395
O -15.3767 4.49366 18.5157
O -15.4586 1.94373 17.3386
O -15.4414 4.39449 15.8227
O -11.2418 4.35649 18.2184
O -11.155 2.01772 17.2789
O -11.19 4.02041 15.503
O -12.4683 -3.86856 19.7105
Si -13.9921 -4.48732 19.8994
Si -10.8325 -3.66917 19.7575
O -13.0507 -1.38409 20.3091
Si -14.6931 -1.35968 20.1975
Si -11.5211 -0.816245 20.4679
O -15.2236 -0.618194 21.5986
O -14.8479 -3.03786 20.0465
O -15.2405 -0.505705 18.8708
O -11.2066 -0.381162 21.9984
O -10.6341 -2.11096 20.1076
O -11.2633 0.232654 19.2595
O -10.7811 -8.34962 16.8576
Si -12.2453 -9.08274 17.1389
Si -9.2536 -7.71945 16.9162
O -11.8792 -5.70995 17.3149
Si -13.4667 -6.10031 17.1776
Si -10.4575 -4.95628 17.0223
O -14.1955 -5.40464 18.5138
O -13.3133 -7.78054 17.1908
O -14.0997 -5.44996 15.7812
O -10.2343 -3.97557 18.286
O -9.36788 -6.13191 17.0971
O -10.2434 -4.40719 15.5174
O -8.30383 -12.0353 20.3658
Si -9.53591 -13.125 20.3026
Si -7.77375 -10.8326 21.6822
O -10.3775 -9.33984 19.7195
Si -11.4997 -10.5303 19.9111
Si -8.83498 -8.80999 19.6863
O -12.3549 -10.0134 21.2436
O -10.8624 -12.0871 20.0953
O -12.2546 -10.087 18.4778
O -8.69083 -7.88043 20.9998
O -7.93758 -10.0948 20.0651
O -8.49543 -8.23452 18.2329
O -4.583 -13.2928 17.1535
Si -5.17518 -14.8238 17.2896
Si -4.74473 -11.6665 17.0448
O -7.90248 -12.4693 17.6129
Si -8.34013 -14.0579 17.5341
Si -7.16457 -11.4087 19.011
O -9.17022 -14.0614 18.9766
O -6.86129 -14.8644 17.3871
O -9.37061 -14.0697 16.2193
O -6.45803 -11.3152 20.6257
O -6.28861 -11.3162 17.3842
O -8.05631 -10.4863 17.8057
O -0.760729 -13.3042 20.283
Si -0.32336 -14.8893 20.2707
Si -0.624702 -11.6969 20.5596
O -3.4145 -13.3042 19.7826
Si -3.52986 -14.9462 20.0204
Si -3.56028 -11.6539 19.8465
O -4.41574 -15.3979 21.3594
O -1.91906 -15.4275 20.133
O -4.38481 -15.3823 18.6514
O -4.46806 -11.2447 21.1244
O -2.08546 -11.1221 20.207
O -3.97818 -11.1339 18.3704
O 3.88574 -12.4932 17.0918
Si 4.5458 -13.9904 17.2757
Si 3.74397 -10.8624 17.1809
O 1.41544 -13.0467 17.7743
Si 1.41814 -14.6862 17.574
Si 0.887119 -11.4952 17.8973
O 0.651204 -15.2275 18.9571
O 3.09651 -14.8454 17.4357
O 0.589748 -15.2391 16.2313
O 0.34572 -11.1496 19.3849
O 2.21673 -10.6332 17.6233
O -0.0578059 -11.1864 16.6189
O 8.76883 -10.6184 19.9181
Si 9.17864 -12.2222 19.9954
Si 7.9161 -9.20426 19.8935
O 5.52751 -11.9641 20.2454
Si 6.16715 -13.4531 20.0143
Si 5.12342 -10.4206 19.8938
O 5.48436 -14.2102 21.3486
O 7.83356 -13.2293 20.0255
O 5.54433 -14.0932 18.6071
O 4.08405 -10.1708 21.1134
O 6.352 -9.42643 20.1654
O 4.65004 -10.232 18.359
O 12.2683 -8.43627 17.5735
Si 13.302 -9.71534 17.4763
Si 11.2326 -7.75903 19.0136
O 9.47018 -10.369 17.1307
Si 10.613 -11.5551 17.2371
Si 8.99359 -8.80231 17.0915
O 10.1055 -12.3496 18.613
O 12.2053 -10.9952 17.3225
O 10.1329 -12.3552 15.8438
O 8.09644 -8.57718 18.4158
O 10.3375 -7.95728 17.401
O 8.35423 -8.52186 15.6349
O 13.3539 -4.59492 19.777
Si 14.8612 -5.2271 19.9489
Si 11.7343 -4.75038 19.7023
O 12.5581 -7.9094 20.3497
Si 14.1283 -8.39999 20.2282
Si 11.603 -7.05235 21.7295
O 14.2407 -9.32713 21.604
O 14.9198 -6.91105 20.0751
O 14.113 -9.3954 18.8946
O 12.095 -6.14097 22.9912
O 11.424 -6.28524 20.097
O 10.5849 -8.01241 20.6481
O 13.3269 -0.804967 17.6745
Si 14.9036 -0.376007 17.4856
Si 11.705 -0.607593 17.7506
O 13.3484 -3.40455 16.9001
Si 14.9762 -3.5797 17.1951
Si 11.6975 -3.51706 16.9414
O 15.3726 -4.51939 18.5187
O 15.4529 -1.96866 17.3449
O 15.4379 -4.41885 15.8258
O 11.2388 -4.38405 18.2194
O 11.1503 -2.04465 17.2842
O 11.1868 -4.04495 15.5043
O 12.4907 3.83529 25.0876
Si 13.9966 4.44735 25.3816
Si 10.8694 3.59975 25.2121
O 13.0743 1.35963 25.7688
Si 14.7128 1.32523 25.6732
Si 11.56 0.76948 25.9436
O 15.2174 0.578969 27.0804
O 14.8614 3.00506 25.5349
O 15.2465 0.470577 24.3417
O 11.2456 0.372377 27.4803
O 10.6694 2.04538 25.5493
O 11.3038 -0.28278 24.7438
O 10.6541 8.68635 22.5142
Si 12.2491 9.07867 22.6578
Si 9.29575 7.76436 22.5099
O 12.078 5.20673 22.6835
Si 13.4819 6.05121 22.663
Si 10.4742 4.95023 22.5265
O 14.2227 5.39468 24.0167
O 13.2283 7.71276 22.7059
O 14.1408 5.45271 21.2503
O 10.2216 3.95006 23.7732
O 9.58635 6.23553 22.8826
O 10.1672 4.44855 21.02
O 8.41035 12.2543 25.8121
Si 9.70612 13.2688 25.726
Si 7.74803 11.1722 27.202
O 10.3036 9.4653 25.241
Si 11.5185 10.5715 25.389
Si 8.72975 9.0122 25.1922
O 12.3336 10.0278 26.7353
O 10.9763 12.1662 25.5319
O 12.3142 10.0877 23.993
O 8.53696 8.0313 26.457
O 7.89108 10.3422 25.5676
O 8.44641 8.3813 23.7377
O 5.23635 13.3043 22.4628
Si 5.2013 14.9153 22.7738
Si 4.77255 11.7502 22.6381
O 7.33977 13.1255 23.6511
Si 8.33913 14.3004 23.0664
Si 7.20074 11.6983 24.4743
O 9.32376 14.2265 24.4173
O 6.8728 15.1464 22.8793
O 9.27136 13.9791 21.7196
O 6.51016 11.6945 26.0725
O 5.95984 11.1442 23.5437
O 7.96781 10.9129 23.2691
O 0.61089 13.2982 26.0441
Si 0.268528 14.886 25.7786
Si 0.402446 11.6731 26.0641
O 3.21568 13.3786 25.6904
Si 3.48176 14.9956 25.5327
Si 3.31143 11.7837 25.3164
O 4.4437 15.39 26.8448
O 1.85555 15.4558 25.6339
O 4.30087 15.3441 24.1165
O 4.27409 11.221 26.4985
O 1.87236 11.1644 25.664
O 3.60948 11.5728 23.7436
O -3.95758 12.4372 22.4067
Si -4.51797 13.9662 22.704
Si -3.67932 10.8188 22.5365
O -1.45308 13.048 23.1312
Si -1.3963 14.6821 23.0129
Si -0.848572 11.5384 23.2653
O -0.681075 15.1895 24.4363
O -3.07269 14.8276 22.8361
O -0.504072 15.1952 21.6986
O -0.513566 11.2086 24.8157
O -2.1043 10.6496 22.8004
O 0.275376 11.3393 22.1209
O -8.28266 10.8667 25.6268
Si -9.1235 12.2725 25.4436
Si -7.73748 9.34372 25.3348
O -5.73914 11.8686 25.5378
Si -6.12997 13.4627 25.4563
Si -4.94068 10.4485 25.3414
O -5.45363 14.1747 26.8135
O -7.81421 13.3394 25.4364
O -5.46231 14.0981 24.0701
O -3.97268 10.2667 26.6201
O -6.14532 9.40109 25.5256
O -4.37634 10.1809 23.8483
O -12.4572 8.52809 23.3455
Si -13.4277 9.78389 22.9663
Si -11.3618 7.88737 24.3784
O -9.85418 10.1119 22.3603
Si -10.6866 11.4845 22.722
Si -9.0514 8.71181 22.6407
O -10.0609 12.2499 24.0651
O -12.312 11.0434 22.8382
O -10.1672 12.2946 21.3472
O -7.94666 8.88228 23.8017
O -10.086 7.74765 23.3946
O -8.47713 8.36093 21.1738
O -13.3604 4.66555 25.264
Si -14.8999 5.22685 25.4105
Si -11.7423 4.86526 25.1713
O -12.6951 7.97876 25.7506
Si -14.2806 8.42128 25.6787
Si -11.6166 7.28695 27.1523
O -14.2565 9.30189 27.0946
O -15.0236 6.90726 25.5368
O -14.2947 9.43336 24.355
O -11.6884 6.51226 28.7243
O -11.4664 6.42391 25.5109
O -10.724 8.22302 25.9626
O -13.3311 0.773102 23.0232
Si -14.9156 0.345949 22.9286
Si -11.7158 0.577901 23.1989
O -13.3525 3.34421 22.4611
Si -14.988 3.55288 22.672
Si -11.7042 3.49713 22.4665
O -15.4011 4.49449 23.9894
O -15.4688 1.93954 22.8024
O -15.4217 4.38637 21.2916
O -11.2568 4.4425 23.6947
O -11.1494 2.03523 22.8293
O -11.2075 3.9051 20.9862
O -12.5024 -3.86036 25.0668
Si -14.0074 -4.47342 25.363
Si -10.881 -3.62589 25.1911
O -13.0843 -1.38977 25.7761
Si -14.7219 -1.35165 25.6635
Si -11.569 -0.79836 25.935
O -15.229 -0.60412 27.0695
O -14.8717 -3.03097 25.5195
O -15.251 -0.494949 24.3317
O -11.2477 -0.398084 27.4694
O -10.6797 -2.07294 25.5338
O -11.3186 0.255814 24.7358
O -10.6625 -8.71097 22.4951
Si -12.2574 -9.10401 22.639
Si -9.30457 -7.78842 22.4911
O -12.0885 -5.23259 22.665
Si -13.4922 -6.07732 22.6443
Si -10.4851 -4.97543 22.5053
O -14.2335 -5.42046 23.9977
O -13.2375 -7.73875 22.6874
O -14.1506 -5.47937 21.2312
O -10.2338 -3.9739 23.7513
O -9.5964 -6.25968 22.863