3072
 Atoms. Timestep: 31473
O -36.469 29.8441 2.60578
Si -37.5748 31.0571 2.71887
Si -35.0373 29.0416 2.66757
O -34.0546 32.6109 2.81583
Si -35.4582 33.4696 2.73208
Si -32.9956 31.3635 2.69162
O -35.3549 34.334 4.14128
O -36.8253 32.5342 2.6488
O -35.2218 34.4143 1.39493
O -32.2602 31.3335 4.14141
O -33.7329 29.9553 2.41346
O -32.0312 31.6483 1.41705
O -39.3898 25.8958 0.0175616
Si -40.544 27.0685 0.102276
Si -37.9361 25.1443 0.142431
O -37.2419 28.8706 0.230343
Si -38.6724 29.6754 0.115699
Si -36.1358 27.6582 0.166402
O -38.5354 30.6932 1.41742
O -39.9422 28.6119 0.18456
O -38.6056 30.5602 20.4958
O -35.1567 28.0077 1.41749
O -36.7295 26.1799 0.417787
O -35.4503 27.7542 20.4736
O -46.9178 4.25886 2.73727
Si -48.4881 4.7504 2.82001
Si -45.2815 4.2831 2.86046
O -46.4245 7.89827 2.94281
Si -48.0656 7.9319 2.83125
Si -44.8779 7.34895 2.88234
O -48.424 8.89414 4.13293
O -48.684 6.39538 2.90211
O -48.4245 8.74271 1.43535
O -44.1787 8.11914 4.13287
O -44.7066 5.76552 3.13642
O -44.3177 7.75522 1.41383
O -47.0867 -0.0751142 -0.121368
Si -48.711 0.160613 -0.00814163
Si -45.4703 0.209468 -0.0582136
O -46.9726 3.59273 0.084783
Si -48.6028 3.36789 0.00258505
Si -45.3622 3.30008 -0.0372748
O -49.0707 4.10331 1.41099
O -49.068 1.77793 -0.0779572
O -49.0196 4.24648 20.44
O -44.775 3.74789 1.4112
O -45.0375 1.7428 -0.308943
O -44.797 4.1286 20.4615
O -46.854 -4.69811 2.60255
Si -48.4936 -4.61942 2.71349
Si -45.2736 -4.25525 2.66263
O -47.0981 -1.03303 2.8071
Si -48.6982 -1.41646 2.72446
Si -45.4672 -1.16888 2.68438
O -49.2353 -0.730944 4.13338
O -49.0057 -3.04429 2.64251
O -49.1984 -0.581276 1.3871
O -44.9257 -0.668974 4.13362
O -44.9946 -2.68708 2.40886
O -44.9853 -0.286908 1.40935
O -46.1354 -9.55625 0.016916
Si -47.7809 -9.53992 0.098878
Si -44.5754 -9.06107 0.139112
O -46.7142 -5.93159 0.222454
Si -48.2954 -6.37206 0.10978
Si -45.0749 -6.00914 0.160154
O -48.9167 -5.55504 1.41181
O -48.444 -8.02172 0.17947
O -48.8731 -5.69782 20.4901
O -44.6286 -5.07113 1.41194
O -44.4513 -7.47526 0.41128
O -44.6567 -5.45526 20.4681
O -44.981 -14.0352 2.73914
Si -46.62 -14.1796 2.82201
Si -43.4778 -13.3883 2.86276
O -45.9127 -10.4819 2.94415
Si -47.4425 -11.0771 2.8331
Si -44.2734 -10.4002 2.88433
O -48.1406 -10.324 4.13469
O -47.4282 -12.7334 2.90432
O -48.083 -10.4644 1.43698
O -43.9205 -9.42165 4.13481
O -43.5117 -11.7988 3.13903
O -43.9098 -9.81115 1.41591
O -43.4831 -18.1049 -0.119788
Si -45.0743 -18.5074 -0.00602557
Si -42.098 -17.2246 -0.0560608
O -44.778 -14.6717 0.0876182
Si -46.1989 -15.5017 0.00460503
Si -43.178 -14.327 -0.035152
O -46.9118 -15.0001 1.41302
O -46.0218 -17.1489 -0.0757575
O -46.9192 -14.8486 20.4419
O -42.8058 -13.6891 1.41324
O -42.2834 -15.6423 -0.30711
O -42.972 -13.3456 20.4636
O -41.5011 -22.2888 2.6042
Si -43.0464 -22.8421 2.71576
Si -40.2101 -21.2754 2.66477
O -43.1274 -18.9949 2.80952
Si -44.4597 -19.9605 2.72641
Si -41.5684 -18.4976 2.68614
O -45.2179 -19.5326 4.13551
O -44.1216 -21.5823 2.64395
O -45.2411 -19.3794 1.38923
O -41.2582 -17.8299 4.13574
O -40.5523 -19.7202 2.40908
O -41.4603 -17.4979 1.41156
O -38.9801 -26.5027 0.0197008
Si -40.5068 -27.1169 0.102506
Si -37.7271 -25.4498 0.142782
O -40.8998 -23.3761 0.227191
Si -42.1933 -24.3865 0.112588
Si -39.3554 -22.8208 0.163171
O -43.0798 -23.8688 1.41442
O -41.7002 -25.9677 0.182534
O -42.9846 -23.9842 20.4928
O -39.3015 -21.7833 1.41482
O -38.2184 -23.9368 0.414348
O -39.1812 -22.1495 20.4709
O -36.201 -30.2 2.74351
Si -37.6604 -30.9599 2.82677
Si -35.0595 -29.0275 2.8676
O -38.4204 -27.2725 2.94876
Si -39.6062 -28.4074 2.83708
Si -36.9368 -26.5706 2.88868
O -40.5395 -27.9782 4.13839
O -38.9599 -29.9324 2.90915
O -40.4321 -28.0864 1.44079
O -36.9849 -25.5307 4.13852
O -35.6989 -27.5721 3.14477
O -36.8256 -25.8886 1.4197
O -33.2624 -33.3865 -0.115496
Si -34.5785 -34.3671 -0.0013202
Si -32.3191 -32.0435 -0.0513497
O -35.7712 -30.7093 0.0929174
Si -36.7667 -32.0196 0.0090127
Si -34.4247 -29.779 -0.0307126
O -37.617 -31.8291 1.41755
O -35.9734 -33.474 -0.0715604
O -37.6821 -31.6915 20.4464
O -34.324 -29.0477 1.41785
O -33.0954 -30.6524 -0.303015
O -34.6101 -28.7934 20.4681
O -29.8305 -36.4957 2.61002
Si -31.0475 -37.5973 2.72024
Si -29.0259 -35.0653 2.66902
O -32.5936 -34.0733 2.81499
Si -33.4552 -35.4751 2.73103
Si -31.3431 -33.0181 2.69062
O -34.3188 -35.3701 4.14045
O -32.5225 -36.8442 2.64798
O -34.3996 -35.2363 1.39408
O -31.3104 -32.2834 4.14065
O -29.9373 -33.7598 2.41214
O -31.6261 -32.0524 1.41661
O -25.8892 -39.425 0.0247576
Si -27.0656 -40.5759 0.106662
Si -25.1346 -37.9726 0.146995
O -28.8597 -37.2695 0.230966
Si -29.668 -38.698 0.117355
Si -27.6446 -36.1664 0.167826
O -30.6853 -38.5587 1.41903
O -28.6076 -39.9703 0.187289
O -30.5531 -38.629 20.4977
O -27.9917 -35.1872 1.41952
O -26.1674 -36.763 0.419285
O -27.74 -35.4795 20.4756
O -21.9083 -41.7776 2.74724
Si -22.9665 -43.0377 2.82984
Si -21.3021 -40.2576 2.87081
O -25.079 -39.9213 2.95275
Si -25.7405 -41.4236 2.84131
Si -23.9764 -38.7056 2.89307
O -26.7671 -41.3838 4.14253
O -24.5601 -42.5854 2.91302
O -26.6261 -41.4432 1.44489
O -24.4187 -37.763 4.14275
O -22.4497 -39.1579 3.14924
O -24.1339 -38.033 1.424
O -17.9756 -43.5977 -0.113653
Si -18.817 -45.0069 -0.00020253
Si -17.619 -41.9957 -0.0505746
O -21.3189 -42.083 0.0945608
Si -21.7365 -43.6747 0.0114563
Si -20.4303 -40.7086 -0.0282796
O -22.5943 -43.8241 1.42047
O -20.4473 -44.715 -0.0702606
O -22.7079 -43.7217 20.4489
O -20.6156 -39.9948 1.42067
O -18.8687 -41.0081 -0.303043
O -20.9785 -39.8686 20.4708
O -13.6172 -45.1568 2.60861
Si -14.3193 -46.6405 2.71966
Si -13.422 -43.5273 2.6681
O -17.097 -43.9761 2.81594
Si -17.3557 -45.601 2.73201
Si -16.3457 -42.5225 2.69152
O -18.1932 -45.8346 4.1418
O -15.9702 -46.509 2.64767
O -18.3197 -45.7417 1.39526
O -16.5948 -41.8315 4.14191
O -14.7636 -42.6704 2.41072
O -16.9769 -41.7384 1.41791
O -8.85399 -46.3533 0.0217612
Si -9.49967 -47.8669 0.104958
Si -8.71336 -44.7228 0.145322
O -12.4237 -45.5003 0.231018
Si -12.6229 -47.1294 0.117237
Si -11.7233 -44.016 0.168072
O -13.6163 -47.3903 1.41872
O -11.1559 -47.8983 0.186905
O -13.4665 -47.4049 20.4974
O -12.4193 -43.244 1.41914
O -10.1306 -44.002 0.42045
O -12.0728 -43.4186 20.4753
O -4.27594 -46.9985 2.74295
Si -4.76994 -48.5679 2.82694
Si -4.2988 -45.3623 2.86785
O -7.91626 -46.5007 2.95088
Si -7.95093 -48.1417 2.83948
Si -7.36338 -44.9554 2.89134
O -8.91469 -48.4986 4.14045
O -6.41506 -48.7615 2.91121
O -8.76096 -48.4995 1.44293
O -8.13397 -44.2542 4.14041
O -5.78026 -44.7878 3.14855
O -7.76508 -44.3954 1.42163
O 0.0524758 -47.1676 -0.11798
Si -0.183335 -48.7919 -0.00396735
Si -0.233132 -45.5515 -0.054731
O -3.61553 -47.0533 0.0918956
Si -3.39047 -48.6834 0.00826898
Si -3.32293 -45.443 -0.0317697
O -4.12496 -49.1511 1.41722
O -1.80066 -49.1487 -0.0739304
O -4.26953 -49.0998 20.446
O -3.76723 -44.8553 1.41749
O -1.76624 -45.1197 -0.307329
O -4.15211 -44.8781 20.4676
O 4.67418 -46.9332 2.6048
Si 4.59577 -48.5727 2.71645
Si 4.22931 -45.3534 2.66489
O 1.00829 -47.1794 2.81189
Si 1.39325 -48.7791 2.72856
Si 1.14393 -45.5487 2.68783
O 0.709926 -49.3168 4.13825
O 3.02106 -49.0855 2.64444
O 0.557638 -49.2794 1.39162
O 0.648191 -45.0068 4.13828
O 2.66145 -45.0772 2.40773
O 0.260451 -45.0672 1.41387
O 9.53321 -46.2103 0.019685
Si 9.51726 -47.8558 0.102903
Si 9.03702 -44.6508 0.143227
O 5.90876 -46.7923 0.228209
Si 6.35025 -48.3731 0.114553
Si 5.98632 -45.1529 0.165398
O 5.53258 -48.9953 1.41561
O 7.99986 -48.5202 0.185307
O 5.67793 -48.9511 20.4943
O 5.04645 -44.707 1.41583
O 7.4518 -44.5295 0.419098
O 5.4354 -44.7356 20.4721
O 14.009 -45.0508 2.74185
Si 14.1545 -46.6898 2.8252
Si 13.3606 -43.5483 2.86596
O 10.4565 -45.9863 2.94948
Si 11.0533 -47.5154 2.83715
Si 10.374 -44.3472 2.88885
O 10.2999 -48.2147 4.13787
O 12.7094 -47.4993 2.90917
O 10.4426 -48.1564 1.44056
O 9.39323 -43.9952 4.13785
O 11.7719 -43.5852 3.14575
O 9.78784 -43.9845 1.41912
O 18.0723 -43.549 -0.118471
Si 18.4763 -45.1399 -0.00550042
Si 17.1884 -42.1662 -0.0564286
O 14.6389 -44.8493 0.089521
Si 15.4722 -46.2682 0.00621145
Si 14.2927 -43.2497 -0.0339721
O 14.9737 -46.9813 1.41552
O 17.1189 -46.0887 -0.0763684
O 14.8193 -46.9896 20.4441
O 13.6579 -42.8766 1.41555
O 15.6071 -42.3555 -0.310386
O 13.3096 -43.0458 20.4658
O 22.2495 -41.5619 2.60434
Si 22.806 -43.1061 2.71577
Si 21.2331 -40.2732 2.66439
O 18.9582 -43.1941 2.81073
Si 19.927 -44.5241 2.72738
Si 18.458 -41.636 2.68677
O 19.5018 -45.2826 4.13699
O 21.5481 -44.1833 2.64401
O 19.3472 -45.3065 1.39034
O 17.7919 -41.3258 4.13701
O 19.6789 -40.6184 2.40803
O 17.4579 -41.5298 1.41244
O 26.4608 -39.032 0.0193356
Si 27.0766 -40.5579 0.102449
Si 25.4043 -37.7822 0.142834
O 23.3353 -40.9594 0.226198
Si 24.3498 -42.2496 0.113685
Si 22.7791 -39.4152 0.164688
O 23.8331 -43.1376 1.41481
O 25.9297 -41.7531 0.184859
O 23.9508 -43.0412 20.4933
O 21.7398 -39.3636 1.41485
O 23.894 -38.2783 0.419427
O 22.1108 -39.2402 20.4712
O 41.6856 -21.9247 2.74745
Si 42.9485 -22.9796 2.82985
Si 40.1643 -21.3214 2.87027
O 39.8389 -25.0993 2.9523
Si 41.3424 -25.7579 2.84031
Si 38.62 -24.0003 2.89131
O 41.3058 -26.7844 4.14162
O 42.501 -24.5746 2.91171
O 41.3642 -26.6442 1.44441
O 37.6792 -24.4452 4.14147
O 39.0666 -22.4717 3.14605
O 37.9478 -24.1614 1.42246
O 43.4961 -17.9854 -0.110556
Si 44.9065 -18.8251 0.00108628
Si 41.8932 -17.633 -0.0496605
O 41.9889 -21.3342 0.0943887
Si 43.5816 -21.7479 0.011594
Si 40.6131 -20.4478 -0.0286839
O 43.734 -22.6046 1.42077
O 44.6183 -20.4559 -0.070582
O 43.6307 -22.72 20.4497
O 39.9007 -20.6336 1.42089
O 40.9098 -18.8857 -0.304361
O 39.7735 -20.9995 20.4715
O 46.8122 4.66824 2.60601
Si 48.4518 4.59136 2.71878
Si 45.2319 4.22538 2.66776
O 47.0585 1.0052 2.81508
Si 48.6586 1.38892 2.73178
Si 45.4274 1.1394 2.69133
O 49.1963 0.703752 4.14065
O 48.9654 3.01676 2.64904
O 49.1593 0.554605 1.39421
O 44.8862 0.639384 4.14063
O 44.9534 2.65703 2.41518
O 44.9464 0.257634 1.4159
O 46.0909 9.5277 0.0189848
Si 47.7363 9.51175 0.102814
Si 44.5313 9.03197 0.142892
O 46.672 5.90257 0.228187
Si 48.2527 6.34445 0.115604
Si 45.0326 5.98067 0.166435
O 48.8746 5.52719 1.41717
O 48.4002 7.99409 0.185466
O 48.8308 5.672 20.4954
O 44.5865 5.04112 1.41714
O 44.4097 7.44671 0.419112
O 44.6147 5.42946 20.4734
O 44.9346 14.0069 2.74006
Si 46.5737 14.1516 2.82337
Si 43.431 13.3609 2.86365
O 45.8665 10.4555 2.94897
Si 47.3965 11.0498 2.83621
Si 44.2274 10.373 2.88702
O 48.0952 10.297 4.13767
O 47.3823 12.7059 2.90648
O 48.0373 10.4371 1.44038
O 43.875 9.3942 4.13758
O 43.4646 11.7713 3.14004
O 43.8651 9.78357 1.41844
O 43.4378 18.0767 -0.120873
Si 45.0294 18.4778 -0.00763785
Si 42.0531 17.1957 -0.0584685
O 44.7325 14.6415 0.088632
Si 46.1531 15.4719 0.0052003
Si 43.1324 14.298 -0.0349752
O 46.8657 14.9717 1.41426
O 45.9762 17.1189 -0.0777152
O 46.8736 14.8179 20.4432
O 42.7589 13.6626 1.41426
O 42.2398 15.6138 -0.310904
O 42.927 13.3149 20.4649
O 41.4595 22.2572 2.59932
Si 43.0045 22.8112 2.71234
Si 40.1677 21.2448 2.66107
O 43.0837 18.9642 2.80911
Si 44.4164 19.9293 2.7255
Si 41.5248 18.4664 2.685
O 45.1744 19.5012 4.13464
O 44.0794 21.5512 2.6424
O 45.1974 19.3484 1.38815
O 41.2145 17.7983 4.13445
O 40.5087 19.689 2.40751
O 41.4167 17.4672 1.41003
O 38.9397 26.4741 0.0129843
Si 40.4667 27.0873 0.0965442
Si 37.6868 25.4212 0.136591
O 40.8586 23.3454 0.222691
Si 42.1518 24.3562 0.109358
Si 39.3137 22.7916 0.160038
O 43.0384 23.8378 1.41088
O 41.6592 25.9375 0.179128
O 42.9425 23.9547 20.4892
O 39.2595 21.7531 1.41094
O 38.1784 23.909 0.412138
O 39.1379 22.1221 20.4672
O 36.1619 30.1725 2.73422
Si 37.6216 30.9318 2.818
Si 35.0192 29.0011 2.85836
O 38.3796 27.2448 2.94202
Si 39.5663 28.3789 2.83029
Si 36.8957 26.5437 2.88135
O 40.4994 27.9496 4.13173
O 38.9208 29.9041 2.90115
O 40.3921 28.0574 1.43415
O 36.9435 25.5042 4.13153
O 35.6578 27.5455 3.13614
O 36.7847 25.8616 1.41246
O 33.2244 33.3606 -0.125045
Si 34.5417 34.3398 -0.0117077
Si 32.2815 32.0173 -0.0625293
O 35.7331 30.6811 0.0829731
Si 36.7286 31.9913 -6.56774e-05
Si 34.3859 29.7519 -0.0404249
O 37.5786 31.801 1.40874
O 35.9359 33.4459 -0.0815822
O 37.644 31.6627 20.4375
O 34.2837 29.0217 1.40857
O 33.0578 30.6264 -0.3149
O 34.5709 28.7657 20.4589
O 29.7964 36.4684 2.59815
Si 31.0129 37.5704 2.70951
Si 28.9908 35.0384 2.65792
O 32.558 34.0456 2.80383
Si 33.4197 35.4473 2.72091
Si 31.3072 32.9904 2.68023
O 34.2835 35.3419 4.13018
O 32.4877 36.8168 2.63777
O 34.3637 35.209 1.38372
O 31.2748 32.2554 4.13005
O 29.9014 33.7321 2.40217
O 31.5892 32.0252 1.4057
O 25.8549 39.4 0.0141436
Si 27.0316 40.5504 0.0967198
Si 25.1004 37.9477 0.136608
O 28.8255 37.2433 0.21957
Si 29.6336 38.6719 0.106995
Si 27.6096 36.1408 0.157331
O 30.6512 38.532 1.40835
O 28.5734 39.9443 0.1779
O 30.5182 38.6033 20.487
O 27.9569 35.1608 1.40826
O 26.1333 36.7385 0.410491
O 27.7036 35.4549 20.4645
O 21.8735 41.752 2.73859
Si 22.932 43.0117 2.82141
Si 21.2677 40.2318 2.86177
O 25.0452 39.8956 2.94119
Si 25.7064 41.3981 2.8313
Si 23.942 38.6804 2.8824
O 26.7333 41.3581 4.1322
O 24.5257 42.5594 2.90447
O 26.5918 41.418 1.43468
O 24.3847 37.7377 4.13167
O 22.4157 39.1327 3.14035
O 24.0989 38.0085 1.41299
O 17.9405 43.5699 -0.11893
Si 18.7819 44.9792 -0.00610036
Si 17.5838 41.9679 -0.0566261
O 21.2846 42.0561 0.0846261
Si 21.702 43.6479 0.00304611
Si 20.3958 40.6817 -0.0373262
O 22.5601 43.7976 1.41173
O 20.4123 44.6878 -0.0771308
O 22.6733 43.6954 20.4404
O 20.582 39.9681 1.41152
O 18.8335 40.9803 -0.309447
O 20.9436 39.8419 20.4614
O 13.5808 45.1282 2.60606
Si 14.2835 46.6117 2.71679
Si 13.385 43.4987 2.66517
O 17.0611 43.9477 2.80865
Si 17.3201 45.5727 2.72611
Si 16.3092 42.4943 2.68523
O 18.1579 45.8066 4.13551
O 15.9344 46.4805 2.64358
O 18.2841 45.7139 1.38929
O 16.5598 41.8035 4.13548
O 14.7266 42.6415 2.40729
O 16.9402 41.7103 1.41124
O 8.81835 46.3263 0.0228583
Si 9.46425 47.8399 0.105597
Si 8.67662 44.6957 0.145528
O 12.3868 45.4719 0.228141
Si 12.5871 47.101 0.114591
Si 11.6866 43.9875 0.164753
O 13.5806 47.3615 1.41596
O 11.1206 47.8707 0.185627
O 13.431 47.3762 20.4948
O 12.3824 43.2156 1.41612
O 10.0937 43.9731 0.417054
O 12.0376 43.3898 20.4723
O 4.23999 46.9758 2.74782
Si 4.73531 48.5448 2.83087
Si 4.26275 45.3395 2.87176
O 7.8812 46.4746 2.95064
Si 7.91611 48.1157 2.84055
Si 7.32731 44.9296 2.89212
O 8.8802 48.4718 4.14138
O 6.38075 48.7368 2.91383
O 8.72621 48.4731 1.4438
O 8.09727 44.2279 4.14123
O 5.74412 44.7638 3.15068
O 7.72904 44.3687 1.42264
O -0.0878986 47.15 -0.112697
Si 0.148094 48.7742 0.0024508
Si 0.195936 45.5336 -0.0481492
O 3.57915 47.0318 0.0961111
Si 3.35536 48.6621 0.0124907
Si 3.28574 45.4217 -0.0275329
O 4.09058 49.1288 1.42141
O 1.76589 49.1294 -0.0681083
O 4.23478 49.0774 20.4499
O 3.7305 44.8334 1.42136
O 1.72841 45.0995 -0.30091
O 4.11387 44.8561 20.4713
O -4.71284 46.9188 2.61255
Si -4.6332 48.5583 2.72382
Si -4.26837 45.3389 2.67202
O -1.04593 47.1628 2.81858
Si -1.43 48.7627 2.73471
Si -1.18288 45.5323 2.69374
O -0.745868 49.2996 4.14441
O -3.05789 49.0699 2.6512
O -0.593229 49.262 1.39794
O -0.688209 44.9896 4.14419
O -2.70082 45.0624 2.4136
O -0.298948 45.0502 1.42033
O -9.5706 46.1967 0.0272389
Si -9.5548 47.8421 0.110439
Si -9.07518 44.6369 0.150405
O -5.94685 46.7781 0.235478
Si -6.38741 48.3591 0.121444
Si -6.02442 45.1387 0.171955
O -5.56998 48.9811 1.42289
O -8.03717 48.5066 0.191528
O -5.71379 48.937 20.5015
O -5.08568 44.6926 1.42312
O -7.48976 44.5147 0.424762
O -5.47254 44.7213 20.4791
O -14.0463 45.0362 2.74938
Si -14.192 46.6751 2.83318
Si -13.3976 43.5339 2.87375
O -10.4934 45.9728 2.95651
Si -11.0907 47.5016 2.84507
Si -10.4112 44.3336 2.89654
O -10.3376 48.2008 4.14611
O -12.7469 47.4849 2.91689
O -10.4796 48.1428 1.44861
O -9.43068 43.9816 4.14566
O -11.809 43.5715 3.1536
O -9.82502 43.9707 1.42692
O -18.1102 43.5327 -0.110876
Si -18.5154 45.1232 0.00344419
Si -17.2273 42.1492 -0.0471387
O -14.6787 44.8329 0.0979005
Si -15.5114 46.2523 0.0148957
Si -14.3317 43.2335 -0.0253477
O -15.0118 46.966 1.42361
O -17.1583 46.0727 -0.0663594
O -14.8592 46.9738 20.4524
O -13.6948 42.8617 1.42357
O -15.6455 42.3375 -0.299031
O -13.3496 43.0294 20.4736
O -22.2903 41.5439 2.61255
Si -22.8465 43.0882 2.72382
Si -21.2742 40.255 2.67239
O -18.9992 43.1763 2.81941
Si -19.9675 44.5066 2.73581
Si -18.4992 41.6182 2.69516
O -19.5416 45.2653 4.14523
O -21.5885 44.1656 2.65228
O -19.3873 45.2889 1.39878
O -17.8325 41.3083 4.14525
O -19.7199 40.6004 2.41642
O -17.4987 41.5121 1.42106
O -26.5005 39.0142 0.0269391
Si -27.1169 40.5401 0.108932
Si -25.4443 37.7639 0.149169
O -23.3761 40.9409 0.234682
Si -24.3897 42.2318 0.120995
Si -22.8189 39.3972 0.171569
O -23.8735 43.1194 1.42267
O -25.9699 41.7354 0.190445
O -23.9892 43.0238 20.5012
O -21.7807 39.3453 1.42273
O -23.9332 38.2589 0.423586
O -22.1487 39.2234 20.4789
O -30.1906 36.2271 2.74749
Si -30.9532 37.6851 2.83054
Si -29.0156 35.0881 2.87113
O -27.2676 38.4534 2.95412
Si -28.4052 39.6368 2.84326
Si -26.5631 36.971 2.89474
O -27.9779 40.5709 4.14469
O -29.9287 38.9869 2.91417
O -28.0864 40.4635 1.44701
O -25.5232 37.0215 4.1445
O -27.5621 35.731 3.15012
O -25.8813 36.8609 1.42564
O -33.3694 33.2812 -0.114996
Si -34.353 34.5951 -0.000433164
Si -32.0242 32.3411 -0.0510141
O -30.698 35.7965 0.0953884
Si -32.0107 36.7889 0.0124198
Si -29.7647 34.452 -0.0276469
O -31.8223 37.6396 1.42116
O -33.4631 35.9921 -0.0694944
O -31.6846 37.7053 20.45
O -29.0337 34.3528 1.42119
O -30.635 33.1209 -0.301828
O -28.7793 34.6398 20.4714
O 30.1504 -36.2451 2.74197
Si 30.9129 -37.7032 2.82513
Si 28.9759 -35.1055 2.86569
O 27.2281 -38.4706 2.94804
Si 28.3652 -39.6544 2.83637
Si 26.5236 -36.9883 2.88769
O 27.9377 -40.5889 4.13726
O 29.8886 -39.0049 2.90836
O 28.0467 -40.4808 1.43995
O 25.4834 -37.0391 4.13708
O 27.5223 -35.7483 3.14414
O 25.8426 -36.8785 1.41825
O 33.3284 -33.2995 -0.116078
Si 34.3109 -34.6144 -0.00402218
Si 31.9819 -32.3611 -0.055071
O 30.655 -35.8171 0.0887812
Si 31.9687 -36.8081 0.006488
Si 29.7227 -34.472 -0.0339567
O 31.7815 -37.658 1.41564
O 33.4208 -36.011 -0.0755558
O 31.6424 -37.7247 20.4444
O 28.9936 -34.3707 1.41561
O 30.5942 -33.1423 -0.309862
O 28.7362 -34.6601 20.4661
O 36.4237 -29.8644 2.60776
Si 37.5299 -31.0772 2.71916
Si 34.9914 -29.063 2.6679
O 34.0097 -32.633 2.81141
Si 35.4143 -33.4903 2.72932
Si 32.9504 -31.3855 2.68872
O 35.3117 -34.3543 4.13858
O 36.781 -32.5543 2.64733
O 35.1791 -34.4348 1.39189
O 32.2154 -31.3556 4.13854
O 33.6876 -29.9771 2.4121
O 31.9865 -31.6698 1.41372
O 39.3443 -25.9136 0.0240649
Si 40.4977 -27.0872 0.106818
Si 37.8894 -25.1643 0.147134
O 37.1956 -28.8923 0.228395
Si 38.6274 -29.6949 0.116775
Si 36.0904 -27.6789 0.167654
O 38.4903 -30.7129 1.41796
O 39.8962 -28.6307 0.188595
O 38.5624 -30.5789 20.4963
O 35.1106 -28.0294 1.4177
O 36.6847 -26.2017 0.423324
O 35.406 -27.7729 20.4742
O -41.7335 21.9079 2.73791
Si -42.9967 22.9622 2.82275
Si -40.2126 21.3043 2.86336
O -39.8861 25.0811 2.94969
Si -41.3893 25.7401 2.83632
Si -38.6671 23.9822 2.88764
O -41.3522 26.7668 4.13775
O -42.5485 24.557 2.90629
O -41.4102 26.626 1.44013
O -37.7256 24.4268 4.13751
O -39.1149 22.4539 3.14183
O -37.9954 24.1424 1.41849
O -43.5442 17.9681 -0.122948
Si -44.9557 18.8055 -0.00785389
Si -41.9416 17.6142 -0.0585386
O -42.0389 21.3134 0.0895791
Si -43.6311 21.7287 0.00509669
Si -40.6619 20.4291 -0.0350213
O -43.7825 22.5872 1.4136
O -44.6683 20.4368 -0.0764622
O -43.68 22.7001 20.4427
O -39.9482 20.6171 1.41375
O -40.9567 18.8664 -0.309533
O -39.8234 20.9802 20.4643
O -45.091 13.6063 2.60044
Si -46.5769 14.3037 2.71257
Si -43.4612 13.4127 2.66168
O -43.9201 17.0867 2.80834
Si -45.5454 17.3429 2.72491
Si -42.4641 16.3398 2.68454
O -45.7807 18.1816 4.13381
O -46.4502 15.9552 2.64239
O -45.6891 18.3055 1.38739
O -41.7729 16.5954 4.13383
O -42.6054 14.7562 2.40863
O -41.6826 16.9715 1.40944
O -46.2781 8.84012 0.0153573
Si -47.7931 9.48268 0.0974209
Si -44.6472 8.70329 0.137719
O -45.4323 12.4122 0.222712
Si -47.0619 12.6077 0.109035
Si -43.9466 11.7152 0.159684
O -47.3248 13.6002 1.4108
O -47.8278 11.139 0.178763
O -47.3392 13.4504 20.489
O -43.1758 12.4129 1.41074
O -43.9292 10.1223 0.411768
O -43.3499 12.0662 20.4669
O 45.0439 -13.6293 2.61089
Si 46.5297 -14.3268 2.72337
Si 43.4142 -13.435 2.67266
O 43.8708 -17.1087 2.8177
Si 45.4962 -17.3649 2.73467
Si 42.4149 -16.3612 2.69448
O 45.7313 -18.2029 4.14382
O 46.4019 -15.978 2.65235
O 45.6399 -18.3274 1.39713
O 41.7239 -16.6158 4.14399
O 42.5575 -14.7776 2.41873
O 41.6332 -16.9922 1.41911
O 46.236 -8.86291 0.0258535
Si 47.7503 -9.50676 0.108546
Si 44.6053 -8.7256 0.149025
O 45.3864 -12.4356 0.232558
Si 47.0162 -12.6307 0.120545
Si 43.9014 -11.7366 0.171714
O 47.2783 -13.6237 1.422
O 47.7832 -11.1629 0.191232
O 47.2934 -13.4728 20.5002
O 43.1298 -12.4341 1.42232
O 43.887 -10.1439 0.425408
O 43.304 -12.0856 20.4787
O 46.8785 -4.28231 2.74598
Si 48.4486 -4.77463 2.82908
Si 45.2421 -4.30489 2.86953
O 46.3832 -7.92007 2.95435
Si 48.0242 -7.95551 2.84174
Si 44.8368 -7.37015 2.89285
O 48.3822 -8.91779 4.14343
O 48.6438 -6.41957 2.91151
O 48.3823 -8.76684 1.44609
O 44.1373 -8.13984 4.14347
O 44.666 -5.78662 3.14613
O 44.2767 -7.77627 1.42434
O 47.0477 0.051072 -0.113788
Si 48.6719 -0.186072 -0.00156798
Si 45.4316 -0.235389 -0.0526701
O 46.934 -3.61878 0.0949592
Si 48.5639 -3.39341 0.0111521
Si 45.324 -3.32555 -0.0291911
O 49.0317 -4.12764 1.42025
O 49.0287 -1.80343 -0.0715964
O 48.9802 -4.27316 20.4492
O 44.7361 -3.76945 1.42018
O 45.0014 -1.76888 -0.30608
O 44.7588 -4.15626 20.4711
O -36.6666 29.6359 8.18675
Si -37.6996 30.9166 8.27084
Si -35.2924 28.7475 8.31144
O -34.2348 32.3889 8.39607
Si -35.5812 33.3278 8.28424
Si -33.2543 31.0728 8.33567
O -35.3445 34.3274 9.58569
O -36.9487 32.3932 8.35468
O -35.4294 34.2009 6.8881
O -32.2442 31.3252 9.58542
O -33.992 29.6614 8.59032
O -32.564 31.0985 6.86667
O -39.2107 26.1263 5.32304
Si -40.4319 27.2227 5.43941
Si -37.7082 25.4662 5.38866
O -37.0815 29.1131 5.53678
Si -38.5622 29.831 5.4529
Si -35.9036 27.977 5.41283
O -38.5433 30.7023 6.86157
O -39.8316 28.7665 5.3709
O -38.4208 30.7933 4.115
O -35.1671 28.0222 6.86166
O -36.4975 26.5019 5.1382
O -34.9736 28.3538 4.13658
O -46.8687 4.54047 8.04553
Si -48.4619 4.93585 8.15639
Si -45.2324 4.66774 8.10568
O -46.3975 8.18294 8.24972
Si -48.0416 8.11761 8.16764
Si -44.8239 7.73321 8.12756
O -48.4357 8.89441 9.57647
O -48.659 6.58034 8.08546
O -48.3705 9.03385 6.83023
O -44.196 8.11921 9.57679
O -44.6543 6.15209 7.85264
O -44.1802 8.50461 6.85222
O -47.1076 -0.364896 5.46046
Si -48.7185 -0.0291577 5.54189
Si -45.481 -0.182282 5.58213
O -46.9713 3.30322 5.6658
Si -48.6079 3.17819 5.55279
Si -45.3782 2.9086 5.60321
O -49.0587 4.10044 6.85466
O -49.0741 1.58887 5.62274
O -49.0439 3.95128 4.15747
O -44.7581 3.7424 6.85474
O -45.0514 1.34924 5.85437
O -44.8607 3.37029 4.13542
O -46.847 -4.98303 8.1823
Si -48.4829 -4.80594 8.26499
Si -45.2466 -4.64136 8.30548
O -47.0689 -1.31689 8.38683
Si -48.6853 -1.60293 8.27594
Si -45.4451 -1.55536 8.32701
O -49.2236 -0.728675 9.57768
O -48.994 -3.23017 8.34698
O -49.1946 -0.87726 6.87995
O -44.9087 -0.664393 9.57776
O -44.97 -3.07556 8.58113
O -44.9737 -1.04749 6.85887
O -46.1714 -9.26743 5.32308
Si -47.8106 -9.35209 5.43671
Si -44.6413 -8.67388 5.38665
O -46.7721 -5.64727 5.53009
Si -48.3274 -6.18473 5.44762
Si -45.1356 -5.62129 5.40776
O -48.9289 -5.55403 6.85613
O -48.475 -7.83484 5.36716
O -48.9069 -5.40371 4.10951
O -44.6461 -5.06819 6.85614
O -44.5148 -7.08577 5.13564
O -44.7422 -4.69878 4.13104
O -45.0431 -13.757 8.04684
Si -46.6667 -13.9989 8.15804
Si -43.5793 -13.0149 8.10711
O -45.9963 -10.2094 8.25212
Si -47.4911 -10.897 8.16921
Si -44.3702 -10.0255 8.12904
O -48.1512 -10.329 9.57819
O -47.4757 -12.5536 8.08697
O -48.1442 -10.1749 6.83188
O -43.936 -9.43016 9.57833
O -43.6115 -11.4226 7.85253
O -44.0691 -9.06636 6.85423
O -43.3915 -18.3814 5.46126
Si -45.0085 -18.6863 5.54395
Si -41.9574 -17.5925 5.58424
O -44.6655 -14.9401 5.66804
Si -46.1309 -15.6796 5.55448
Si -43.0425 -14.6967 5.60502
O -46.8995 -14.9991 6.85642
O -45.9551 -17.3266 5.62432
O -46.8288 -15.1307 4.15928
O -42.7874 -13.6897 6.8568
O -42.1448 -16.0129 5.85628
O -42.7405 -14.0722 4.13729
O -41.3859 -22.5494 8.18477
Si -42.9654 -23.0105 8.26792
Si -40.0377 -21.6221 8.3088
O -42.9925 -19.2459 8.38986
Si -44.3768 -20.1279 8.27839
Si -41.4005 -18.8466 8.32982
O -45.2085 -19.5252 9.57984
O -44.0399 -21.7496 8.3503
O -45.1243 -19.652 6.88206
O -41.2451 -17.8176 9.57998
O -40.3812 -20.0699 8.58567
O -41.1586 -18.1988 6.86104
O -39.1242 -26.2483 5.32585
Si -40.6062 -26.9535 5.44005
Si -37.9371 -25.115 5.39011
O -41.0627 -23.1336 5.53392
Si -42.2947 -24.2245 5.45034
Si -39.5608 -22.4834 5.41064
O -43.0919 -23.8717 6.85871
O -41.8003 -25.8057 5.36989
O -43.1286 -23.7242 4.11216
O -39.3199 -21.7855 6.85915
O -38.4272 -23.5991 5.1387
O -39.5505 -21.4807 4.13382
O -36.3649 -29.967 8.05116
Si -37.7731 -30.8104 8.16219
Si -35.2966 -28.7211 8.11105
O -38.6022 -27.0523 8.25629
Si -39.7205 -28.2591 8.17254
Si -37.1698 -26.2611 8.13222
O -40.5473 -27.9876 9.58182
O -39.0729 -29.7839 8.08994
O -40.6001 -27.841 6.83544
O -36.995 -25.5465 9.58209
O -35.9355 -27.2626 7.85451
O -37.2589 -25.2591 6.85796
O -33.0708 -33.6083 5.46632
Si -34.4486 -34.5081 5.54889
Si -32.0472 -32.3312 5.58915
O -35.5634 -30.9158 5.67363
Si -36.635 -32.1589 5.55922
Si -34.1568 -30.0702 5.60964
O -37.6056 -31.8241 6.861
O -35.8431 -33.6137 5.62905
O -37.4896 -31.9186 4.16396
O -34.3061 -29.0423 6.86145
O -32.8241 -30.9431 5.8609
O -34.1166 -29.3779 4.1419
O -29.6245 -36.6919 8.18944
Si -30.9076 -37.7219 8.27283
Si -28.7333 -35.3195 8.31368
O -32.3721 -34.2538 8.3952
Si -33.314 -35.5981 8.28356
Si -31.0539 -33.2761 8.33519
O -34.3131 -35.3591 9.58485
O -32.3826 -36.9677 8.35541
O -34.1865 -35.4444 6.88717
O -31.3039 -32.2656 9.585
O -29.6444 -34.017 8.59149
O -31.0775 -32.5856 6.86618
O -26.121 -39.2441 5.33044
Si -27.2209 -40.4625 5.44401
Si -25.4579 -37.7428 5.39396
O -29.1039 -37.1075 5.5384
Si -29.8247 -38.5868 5.45486
Si -27.9646 -35.9325 5.41511
O -30.6955 -38.566 6.86361
O -28.763 -39.8585 5.37379
O -30.7866 -38.4436 4.11681
O -28.0082 -35.1957 6.86378
O -26.4907 -36.53 5.14205
O -28.3386 -35.002 4.13836
O -22.1496 -41.6246 8.05383
Si -23.1283 -42.9424 8.16455
Si -21.6395 -40.0647 8.11337
O -25.3319 -39.7872 8.25981
Si -25.9034 -41.3301 8.17621
Si -24.311 -38.5084 8.13592
O -26.7706 -41.3957 9.58579
O -24.7218 -42.4911 8.09235
O -26.8763 -41.2802 6.83941
O -24.4216 -37.7817 9.58612
O -22.7878 -38.9619 7.85657
O -24.7769 -37.6162 6.86209
O -17.7126 -43.7299 5.46849
Si -18.642 -45.088 5.55057
Si -17.2558 -42.1582 5.59091
O -21.0462 -42.1946 5.6754
Si -21.5604 -43.7533 5.56201
Si -20.0694 -40.8757 5.61276
O -22.5856 -43.815 6.8635
O -20.2724 -44.7945 5.63198
O -22.4418 -43.8585 4.16674
O -20.6008 -39.9829 6.86432
O -18.5045 -41.1734 5.86447
O -20.2965 -40.2209 4.14481
O -13.3495 -45.2602 8.18954
Si -14.1414 -46.7024 8.27281
Si -13.0519 -43.6511 8.31367
O -16.8219 -44.0583 8.39603
Si -17.1772 -45.6609 8.28513
Si -15.9774 -42.651 8.33697
O -18.192 -45.8222 9.58625
O -15.7926 -46.5698 8.35676
O -18.0417 -45.8531 6.88864
O -16.5954 -41.8128 9.58638
O -14.392 -42.797 8.59364
O -16.2623 -42.0224 6.86766
O -9.13788 -46.275 5.32821
Si -9.68728 -47.8216 5.44181
Si -9.10186 -44.6342 5.39119
O -12.713 -45.444 5.53775
Si -12.8111 -47.0866 5.45426
Si -12.1105 -43.9223 5.41419
O -13.6231 -47.401 6.86327
O -11.3432 -47.8544 5.37218
O -13.7547 -47.3225 4.11632
O -12.431 -43.2586 6.86329
O -10.5207 -43.9105 5.13867
O -12.8128 -43.2057 4.13797
O -4.55896 -46.9493 8.05064
Si -4.95687 -48.5418 8.16162
Si -4.68664 -45.313 8.11003
O -8.20256 -46.4736 8.25802
Si -8.13808 -48.1176 8.17409
Si -7.75049 -44.9009 8.13348
O -8.91361 -48.511 9.58377
O -6.60156 -48.7365 8.08989
O -9.05567 -48.4447 6.83727
O -8.13011 -44.2723 9.58394
O -6.17019 -44.7357 7.85279
O -8.52299 -44.2559 6.85976
O 0.346425 -47.1893 5.46371
Si 0.00954859 -48.8 5.54741
Si 0.165143 -45.5629 5.58764
O -3.32134 -47.0523 5.67313
Si -3.19755 -48.6889 5.55934
Si -2.92486 -45.4597 5.61021
O -4.12077 -49.1393 6.86066
O -1.60842 -49.1554 5.62952
O -3.97037 -49.1243 4.16378
O -3.75905 -44.8388 6.86093
O -1.36582 -45.1341 5.86332
O -3.38395 -44.9428 4.14154
O 4.96263 -46.9259 8.18604
Si 4.78511 -48.5617 8.26967
Si 4.6202 -45.3258 8.31054
O 1.29562 -47.1498 8.39392
Si 1.58233 -48.766 8.28182
Si 1.53512 -45.5262 8.33354
O 0.706853 -49.3047 9.58256
O 3.2097 -49.0735 8.35376
O 0.858256 -49.2754 6.88518
O 0.641899 -44.9894 9.5824
O 3.05488 -45.052 8.59077
O 1.03148 -45.0562 6.86365
O 9.24029 -46.2467 5.32497
Si 9.32644 -47.8857 5.43889
Si 8.6443 -44.7175 5.38811
O 5.62017 -46.851 5.53414
Si 6.15992 -48.4055 5.45075
Si 5.59278 -45.2147 5.41068
O 5.53149 -49.0076 6.85994
O 7.80995 -48.5514 5.36825
O 5.37898 -48.9856 4.11302
O 5.04264 -44.7249 6.8601
O 7.05646 -44.5939 5.13474
O 4.66883 -44.8227 4.13469
O 13.7267 -45.1146 8.0479
Si 13.9704 -46.7378 8.15983
Si 12.9818 -43.6522 8.10836
O 10.1795 -46.0719 8.25501
Si 10.8698 -47.5655 8.17167
Si 9.99385 -44.4461 8.13101
O 10.3047 -48.2262 9.58141
O 12.5261 -47.5482 8.08784
O 10.148 -48.2193 6.83469
O 9.40177 -44.0114 9.58142
O 11.3901 -43.6872 7.85147
O 9.03333 -44.1464 6.857
O 18.3516 -43.4564 5.46332
Si 18.6573 -45.0733 5.54632
Si 17.5598 -42.0242 5.58666
O 14.9099 -44.7355 5.67109
Si 15.6522 -46.1993 5.55798
Si 14.666 -43.1125 5.60895
O 14.9719 -46.9693 6.85903
O 17.2988 -46.0212 5.62887
O 15.106 -46.8976 4.16212
O 13.657 -42.8587 6.85927
O 15.9816 -42.2152 5.86313
O 14.0444 -42.8104 4.14009
O 22.5143 -41.4443 8.18516
Si 22.9772 -43.0233 8.26849
Si 21.5848 -40.0974 8.30911
O 19.2134 -43.0562 8.39232
Si 20.0974 -44.4392 8.2804
Si 18.812 -41.4648 8.33191
O 19.4953 -45.2723 9.58122
O 21.7183 -44.0998 8.3522
O 19.6235 -45.1874 6.88394
O 17.7816 -41.3114 9.58107
O 20.0339 -40.444 8.58841
O 18.166 -41.2238 6.86232
O 26.2061 -39.1766 5.32608
Si 26.9128 -40.6581 5.43843
Si 25.0688 -37.9933 5.38738
O 23.0927 -41.1232 5.53273
Si 24.1872 -42.352 5.44969
Si 22.4408 -39.6221 5.40938
O 23.8378 -43.1489 6.85894
O 25.767 -41.8539 5.36728
O 23.6881 -43.1872 4.11208
O 21.7453 -39.3803 6.8589
O 23.5551 -38.4881 5.13323
O 21.4367 -39.6139 4.13374
O 41.5306 -22.1703 8.05446