2592
 Atoms. Timestep: 4901
O -58.0058 -54.9759 2.72216
Si -59.3641 -55.9056 2.72241
Si -56.9832 -53.6903 2.7225
O -60.459 -52.2816 2.7225
Si -61.512 -53.5468 2.72247
Si -59.0837 -51.3835 2.72238
O -62.4059 -53.2913 4.08643
O -60.7495 -55.0098 2.72246
O -62.4059 -53.2913 1.35852
O -59.1519 -50.4971 4.08631
O -57.7117 -52.244 2.72244
O -59.1519 -50.4971 1.35843
O -54.7033 -58.2453 -0.00532557
Si -56.005 -59.2527 -0.00540373
Si -53.7571 -56.9026 -0.00547664
O -57.3087 -55.6983 -0.00521736
Si -58.2861 -57.0227 -0.00548378
Si -55.9879 -54.7217 -0.00538407
O -59.1933 -56.8195 1.35846
O -57.4401 -58.439 -0.00542315
O -59.1932 -56.8195 4.08633
O -56.1071 -53.841 1.35861
O -54.5683 -55.501 -0.00540778
O -56.1072 -53.841 4.08645
O -35.6657 -71.4336 2.72297
Si -36.6252 -72.771 2.72248
Si -35.1427 -69.8764 2.72244
O -38.891 -69.7385 2.72234
Si -39.4488 -71.2871 2.72249
Si -37.9046 -68.425 2.72248
O -40.376 -71.3524 4.08645
O -38.233 -72.4021 2.72244
O -40.3761 -71.3524 1.35857
O -38.2715 -67.6152 4.08648
O -36.3212 -68.7656 2.72247
O -38.2715 -67.6152 1.35849
O -31.4462 -73.3825 -0.00559464
Si -32.327 -74.7731 -0.0055431
Si -31.014 -71.7978 -0.00539615
O -34.7635 -71.8751 -0.00573066
Si -35.2311 -73.4533 -0.00545657
Si -33.8546 -70.5069 -0.00550745
O -36.1531 -73.5717 1.3585
O -33.9534 -74.4967 -0.00548348
O -36.1532 -73.5718 4.08645
O -34.2676 -69.7196 1.35846
O -32.2543 -70.7563 -0.00548106
O -34.2675 -69.7194 4.08637
O -9.0584 -79.3171 2.72231
Si -9.50596 -80.9011 2.72255
Si -9.09643 -77.6749 2.72243
O -12.6679 -78.8192 2.72227
Si -12.666 -80.4653 2.7224
Si -12.187 -77.2486 2.72247
O -13.5162 -80.8414 4.08635
O -11.1435 -81.1006 2.72253
O -13.5161 -80.8415 1.35841
O -12.8071 -76.6116 4.08644
O -10.5823 -77.0307 2.72244
O -12.8072 -76.6115 1.35856
O 14.0888 -78.605 -0.00517669
Si -4.78281 -81.3204 -0.00546011
Si -4.5611 -78.0758 -0.00541816
O -8.06019 -79.4253 -0.00545702
Si -7.96279 -81.0684 -0.00535671
Si -7.67117 -77.8294 -0.00547065
O -8.78955 -81.4935 1.35858
O -6.40608 -81.6144 -0.00536683
O -8.78953 -81.4935 4.08651
O -8.32715 -77.2295 1.35847
O -6.08177 -77.5188 -0.00538239
O -8.3271 -77.2295 4.08637
O 18.6388 -77.658 2.72269
Si 18.7598 -79.2996 2.72238
Si 18.042 -76.1276 2.72251
O 15.0763 -78.4226 2.72221
Si 15.6407 -79.9689 2.72244
Si 14.9916 -76.7822 2.72241
O 14.9703 -80.613 4.08643
O 17.2886 -80.0461 2.72236
O 14.9703 -80.6131 1.3585
O 14.1912 -76.3954 4.08633
O 16.4255 -76.0294 2.72258
O 14.1913 -76.3953 1.35845
O 40.1477 -69.0674 -0.00506343
Si 23.3422 -78.0792 -0.00552417
Si 39.1367 -67.7728 -0.00522743
O 19.614 -77.4189 -0.00554887
Si 20.2675 -78.9297 -0.00555145
Si 19.4342 -75.7862 -0.00541478
O 19.6357 -79.6116 1.3585
O 21.9172 -78.9105 -0.00570808
O 19.6356 -79.6116 4.08631
O 18.6127 -75.4464 1.35845
O 20.8217 -74.951 -0.00528882
O 18.6128 -75.4463 4.08647
O 44.0975 -66.6176 2.7238
Si 44.7725 -68.119 2.72326
Si 43.0128 -65.3841 2.72329
O 41.0124 -68.5576 2.72206
Si 42.0719 -69.8173 2.72255
Si 40.3718 -67.0451 2.72266
O 41.6625 -70.6524 4.08631
O 43.6464 -69.3246 2.72287
O 41.663 -70.6522 1.35856
O 39.4877 -66.9559 4.08681
O 41.4607 -65.8463 2.72256
O 39.4874 -66.9559 1.35871
O 61.3674 -51.1878 -0.00548797
Si 48.6599 -65.4038 -0.0056429
Si 59.9747 -50.3168 -0.00574236
O 44.9314 -66.0588 -0.00492822
Si 46.0621 -67.255 -0.00468562
Si 44.2037 -64.5861 -0.00465899
O 45.7023 -68.1119 1.35943
O 47.6055 -66.6725 -0.00510717
O 45.7018 -68.1124 4.08744
O 43.316 -64.5481 1.35957
O 45.2215 -63.3264 -0.00532786
O 43.3152 -64.5485 4.08743
O 64.245 -47.5376 2.72251
Si 65.3927 -48.7175 2.72231
Si 62.8039 -46.7494 2.7224
O 62.0071 -50.414 2.72205
Si 63.4336 -51.2354 2.7221
Si 60.888 -49.2117 2.72215
O 63.3336 -52.1597 4.0861
O 64.7456 -50.2351 2.72208
O 63.3337 -52.1596 1.35802
O 60.0261 -49.4293 4.08611
O 61.5026 -47.7134 2.72208
O 60.0259 -49.4295 1.35836
O 75.1984 -27.1323 -0.00354813
Si 68.1165 -44.8353 -0.00583417
Si 65.4174 -43.0212 -0.00600337
O 64.8379 -46.7272 -0.00515895
Si 66.3096 -47.4644 -0.00560112
Si 63.6503 -45.5923 -0.00549322
O 66.2643 -48.3929 1.35851
O 67.5602 -46.3884 -0.00594719
O 66.2639 -48.3933 4.08643
O 62.8028 -45.8604 1.3585
O 64.1753 -44.0603 -0.00558015
O 62.8027 -45.8606 4.08642
O 76.6535 -22.7185 2.72326
Si 78.1354 -23.435 2.72204
Si 75.0298 -22.4699 2.72146
O 75.5345 -26.1861 2.72295
Si 77.1557 -26.4708 2.72311
Si 74.0716 -25.439 2.72354
O 77.3782 -27.373 4.08729
O 78.0466 -25.0823 2.7224
O 77.3783 -27.3736 1.3593
O 73.3364 -25.9385 4.08755
O 74.1366 -23.8208 2.72359
O 73.3361 -25.9387 1.35974
O 79.9805 0.200055 -0.0056548
Si 79.3718 -18.8573 -0.00504246
Si 76.2155 -18.0739 -0.00477179
O 76.934 -21.7545 -0.00857153
Si 78.5691 -21.9447 -0.00601797
Si 75.4304 -21.0933 -0.00661998
O 78.8433 -22.8328 1.35796
O 79.3781 -20.507 -0.00550184
O 78.8439 -22.8328 4.08584
O 74.7251 -21.6364 1.35654
O 75.4018 -19.4741 -0.00435844
O 74.7254 -21.6331 4.0845
O 79.8406 4.84581 2.72227
Si 81.4781 4.67849 2.7218
Si 78.2297 4.5247 2.72199
O 79.9736 1.20422 2.7216
Si 81.5946 1.49039 2.72192
Si 78.3436 1.40694 2.72192
O 82.1117 0.717756 4.08591
O 81.9573 3.09982 2.72186
O 82.1118 0.717748 1.35795
O 77.823 0.686325 4.08585
O 77.8519 2.94996 2.72183
O 77.8229 0.686343 1.35802
O 79.4291 9.47516 -0.0057996
Si 81.0736 9.40363 -0.00603688
Si 77.8396 9.06078 -0.00601977
O 79.7744 5.84783 -0.00627403
Si 81.376 6.2278 -0.00613424
Si 78.1353 5.95511 -0.00595057
O 81.9375 5.4867 1.35777
O 81.6441 7.85563 -0.00605681
O 81.9376 5.48678 4.08576
O 77.6579 5.20561 1.35819
O 77.5542 7.4667 -0.00629377
O 77.6578 5.20523 4.08596
O 78.7496 14.0728 2.72169
Si 80.3954 14.0973 2.72181
Si 77.187 13.5662 2.72175
O 79.3049 10.4714 2.7217
Si 80.8816 10.9443 2.72185
Si 77.6624 10.483 2.72187
O 81.4853 10.2372 4.0858
O 81.0548 12.585 2.72178
O 81.4854 10.2372 1.35794
O 77.2292 9.70711 4.08596
O 76.9946 11.9583 2.72146
O 77.2292 9.70667 1.35802
O 77.8031 18.6228 -0.00602345
Si 79.4447 18.7435 -0.00614863
Si 76.2729 18.0258 -0.00617705
O 78.5679 15.0599 -0.00597585
Si 80.1142 15.6242 -0.00609422
Si 76.9275 14.9756 -0.00615547
O 80.758 14.9535 1.35792
O 80.1913 17.2723 -0.00615612
O 80.758 14.9534 4.08576
O 76.5401 14.1758 1.35788
O 76.1747 16.4094 -0.00651044
O 76.5402 14.1754 4.08587
O 76.5909 23.1093 2.72144
Si 78.2226 23.3261 2.7216
Si 75.0981 22.4239 2.72157
O 77.5636 19.598 2.72153
Si 79.0743 20.2516 2.72174
Si 75.9309 19.4175 2.72172
O 79.7563 19.6196 4.08571
O 79.0544 21.9013 2.72168
O 79.7564 19.6195 1.35782
O 75.5913 18.5964 4.08578
O 75.0951 20.8045 2.72151
O 75.5913 18.596 1.35786
O 75.1177 27.5174 -0.00626189
Si 76.734 27.829 -0.00658952
Si 73.6677 26.7456 -0.00647396
O 76.2947 24.0686 -0.00633677
Si 77.7645 24.8098 -0.00631518
Si 74.6754 23.7931 -0.00633636
O 78.4824 24.2189 1.35766
O 77.6478 26.4555 -0.00641002
O 78.4824 24.2189 4.08554
O 74.3843 22.9534 1.35761
O 73.7597 25.1288 -0.00640314
O 74.3844 22.9533 4.08557
O 73.3899 31.8316 2.72114
Si 74.9852 32.2373 2.7212
Si 71.9875 30.9764 2.72119
O 74.7659 28.4573 2.7213
Si 76.1898 29.2831 2.72129
Si 73.1654 28.0878 2.72142
O 76.9411 28.7354 4.08524
O 75.9775 30.9192 2.72128
O 76.9411 28.7355 1.35731
O 72.9241 27.2324 4.08536
O 72.1735 29.3678 2.72133
O 72.9241 27.2323 1.3575
O 71.4141 36.0381 -0.00750654
Si 72.9828 36.5367 -0.00695683
Si 70.0642 35.1023 -0.00694363
O 72.9843 32.7499 -0.00665441
Si 74.3575 33.6575 -0.00671952
Si 71.4082 32.2872 -0.00672383
O 75.1393 33.1543 1.35727
O 74.0502 35.2786 -0.00682363
O 75.1393 33.1543 4.08511
O 71.2169 31.4192 1.3572
O 70.3435 33.5073 -0.00684337
O 71.2169 31.4192 4.08517
O 69.1934 40.1209 2.72069
Si 70.7302 40.7106 2.72085
Si 67.9007 39.1074 2.72074
O 70.9552 36.9312 2.72158
Si 72.2728 37.9178 2.72098
Si 69.4091 36.3767 2.72101
O 73.0829 37.4613 4.08496
O 71.8702 39.5179 2.72085
O 73.0828 37.4612 1.35699
O 69.269 35.499 4.08489
O 68.2741 37.5317 2.72082
O 69.2692 35.499 1.35712
O 66.7357 44.0655 -0.00747169
Si 68.2353 44.7443 -0.00730938
Si 65.5048 42.9779 -0.00735411
O 68.6823 40.9849 -0.00702828
Si 69.9396 42.0473 -0.00706775
Si 67.1713 40.3408 -0.00716948
O 70.7752 41.6395 1.35693
O 69.4435 43.6207 -0.00727536
O 70.7753 41.6394 4.08484
O 67.0834 39.4564 1.35679
O 65.9702 41.4269 -0.00726836
O 67.0834 39.4564 4.0847
O 64.052 47.86 2.72035
Si 65.5092 48.6255 2.72037
Si 62.8867 46.7024 2.72036
O 66.1749 44.8981 2.72086
Si 67.3678 46.0323 2.7206
Si 64.7041 44.1666 2.72057
O 68.226 45.6741 4.08457
O 66.7808 47.5742 2.72043
O 68.226 45.674 1.3567
O 64.6683 43.2785 4.0845
O 63.4418 45.181 2.72046
O 64.6684 43.2785 1.35662
O 61.1508 51.4913 -0.0079729
Si 62.5607 52.3408 -0.00773713
Si 60.055 50.2675 -0.00769212
O 63.4432 48.6592 -0.00739153
Si 64.568 49.8609 -0.00754532
Si 62.0179 47.8426 -0.00754412
O 65.4455 49.5533 1.35643
O 63.8918 51.3659 -0.00765564
O 65.4455 49.5532 4.08432
O 62.0342 46.9538 1.35636
O 60.6983 48.7813 -0.00754913
O 62.0342 46.9539 4.08434
O 43.7668 66.7937 2.71974
Si 44.8741 68.0116 2.71969
Si 43.0679 65.3072 2.71965
O 46.7757 64.7383 2.71936
Si 47.5082 66.2124 2.71981
Si 45.6442 63.5475 2.71962
O 48.4369 66.1701 4.08373
O 46.4288 67.4598 2.71974
O 48.4371 66.1702 1.35596
O 45.9152 62.7008 4.08356
O 44.1107 64.068 2.71973
O 45.9149 62.7009 1.35554
O 39.7989 69.2135 -0.0079489
Si 40.8336 70.4937 -0.00828551
Si 39.1871 67.6891 -0.00833291
O 42.9215 67.3357 -0.00816693
Si 43.5674 68.8497 -0.0082351
Si 41.861 66.0812 -0.00827636
O 44.497 68.8614 1.35573
O 42.4176 70.0328 -0.00832721
O 44.4971 68.8613 4.08367
O 42.1805 65.2517 1.35577
O 40.2999 66.5123 -0.00867913
O 42.1807 65.2516 4.08361
O 18.242 77.685 2.71277
Si 18.8694 79.2068 2.71886
Si 18.0899 76.0494 2.71814
O 21.7702 76.7746 2.72189
Si 21.9581 78.4098 2.71949
Si 21.111 75.27 2.72009
O 22.8458 78.6863 4.08342
O 20.519 79.2162 2.71907
O 22.8459 78.6856 1.35559
O 21.6523 74.566 4.08474
O 19.4918 75.2384 2.71819
O 21.6552 74.5658 1.35676
O -4.83184 79.6611 -0.00869753
Si 14.2269 80.1704 -0.00859719
Si 13.6309 76.9733 -0.00855624
O 17.2628 77.9082 -0.00370421
Si 17.3561 79.5516 -0.00860755
Si 16.6917 76.368 -0.00928376
O 18.2264 79.8791 1.35528
O 15.8733 80.2743 -0.0092005
O 18.2264 79.8772 4.08315
O 17.2739 75.6952 1.3544
O 15.0769 76.2439 -0.00975255
O 17.2743 75.697 4.08235
O -9.46092 79.249 2.71884
Si -9.38997 80.8935 2.71917
Si -9.04632 77.6596 2.71907
O -5.83356 79.5949 2.71921
Si -6.21431 81.1963 2.71912
Si -5.94059 77.9557 2.71898
O -5.47388 81.7581 4.08318
O -7.84211 81.4642 2.71892
O -5.47339 81.7581 1.35533
O -5.19045 77.4784 4.08279
O -7.45215 77.3745 2.71949
O -5.19109 77.4784 1.35484
O -31.8236 73.2224 -0.00872491
Si -14.0834 80.2148 -0.00885792
Si -13.5523 77.0063 -0.00884433
O -10.4574 79.1249 -0.00842861
Si -10.9305 80.7015 -0.0087132
Si -10.4689 77.4823 -0.00881201
O -10.2237 81.3053 1.35533
O -12.5712 80.8745 -0.00897275
O -10.2233 81.3053 4.08323
O -9.69228 77.0492 1.35496
O -11.9442 76.8144 -0.00850397
O -9.6928 77.0493 4.08294
O -36.0318 71.2495 2.71901
Si -36.5278 72.8191 2.71927
Si -35.0981 69.8981 2.71919
O -32.742 72.8168 2.71895
Si -33.6477 74.1913 2.71912
Si -32.2816 71.24 2.71903
O -33.1438 74.9729 4.08299
O -35.2689 73.8854 2.71925
O -33.144 74.9729 1.35518
O -31.4136 71.0485 4.08302
O -33.5027 70.1763 2.71923
O -31.4138 71.0484 1.35494
O -54.9811 57.9357 -0.0104079
Si -40.7058 70.5753 -0.00848319
Si -53.6991 56.9087 -0.00996757
O -36.9253 70.7916 -0.0086221
Si -37.9095 72.111 -0.0086206
Si -36.3739 69.2443 -0.00870362
O -37.452 72.9204 1.35533
O -39.5103 71.7123 -0.00857067
O -37.452 72.9204 4.08323
O -35.4961 69.1033 1.35521
O -37.5317 68.112 -0.00859882
O -35.4962 69.1033 4.08312
O -58.2616 54.6435 2.7108
Si -59.2649 55.9485 2.72003
Si -56.922 53.6931 2.72002
O -55.7063 57.2411 2.71828
Si -57.0275 58.2228 2.71852
Si -54.7341 55.917 2.71798
O -56.8208 59.1297 4.08226
O -58.4465 57.381 2.7195
O -56.8213 59.129 1.35425
O -53.8525 56.0335 4.08166
O -55.5179 54.4999 2.71861
O -53.8532 56.0331 1.35382
O -71.507 35.6437 -0.0058656
Si -62.4206 52.4079 -0.00885912
Si -69.9511 35.1172 -0.00606141
O -58.9444 53.9069 0.00220355
Si -60.3207 54.8098 -0.00716423
Si -57.8966 52.642 -0.00707322
O -60.1695 55.7275 1.35679
O -61.6877 53.886 -0.00880707
O -60.1663 55.7265 4.08479
O -57.0236 52.808 1.35717
O -58.5957 51.1812 -0.00931097
O -57.0241 52.812 4.08501
O -73.4623 31.4272 2.72189
Si -74.8512 32.3105 2.72038
Si -71.8783 30.9922 2.71947
O -71.95 34.7423 2.72126
Si -73.5273 35.2131 2.72101
Si -70.5835 33.8307 2.72182
O -73.6438 36.1354 4.08501
O -74.5725 33.9366 2.72061
O -73.6438 36.1358 1.35725
O -69.7959 34.2413 4.08618
O -70.835 32.2308 2.72119
O -69.7952 34.2423 1.35811
O -79.4193 9.04624 -0.00610658
Si -76.6082 27.9057 -0.0073571
Si -77.7771 9.08308 -0.00606104
O -73.8523 30.5015 -0.0108177
Si -75.4543 30.8798 -0.00770078
Si -72.4351 29.671 -0.00864301
O -75.6238 31.7939 1.35624
O -76.424 29.5451 -0.0072126
O -75.6246 31.7939 4.08416
O -71.6721 30.1288 1.35474
O -72.5937 28.0593 -0.00668458
O -71.6724 30.1261 4.08259
O -79.8194 4.41611 2.72003
Si -81.4265 4.77192 2.72121
Si -78.182 4.54812 2.72058
O -79.5287 8.04799 2.72213
Si -81.1719 7.95177 2.72141
Si -77.933 7.65795 2.72186
O -81.5962 8.77895 4.08541
O -81.7192 6.39546 2.7214
O -81.5961 8.77897 1.35741
O -77.3326 8.31191 4.08655
O -77.6237 6.0683 2.71974
O -77.3324 8.31472 1.35863
O -79.9498 -0.2296 -0.00551262
Si -81.5749 0.0321932 -0.00577813
Si -78.3229 -0.00259981 -0.00498684
O -79.8706 3.41314 -0.00651252
Si -81.5054 3.22152 -0.00663158
Si -78.255 3.11644 -0.00726308
O -81.9771 4.02286 1.35722
O -81.9614 1.63603 -0.00621207
O -81.9769 4.02252 4.08508
O -77.6934 3.80519 1.35682
O -77.8539 1.54746 -0.00796131
O -77.6935 3.80611 4.08487
O -79.8093 -4.87539 2.72098
Si -81.4468 -4.70833 2.72162
Si -78.1985 -4.5538 2.72082
O -79.9425 -1.23355 2.72313
Si -81.5634 -1.52026 2.72217
Si -78.3124 -1.43607 2.72297
O -82.0809 -0.748005 4.08622
O -81.926 -3.12969 2.72185
O -82.0807 -0.747658 1.35828
O -77.7919 -0.717396 4.08788
O -77.8207 -2.97905 2.72046
O -77.792 -0.713441 1.36007
O -79.3974 -9.50456 -0.00514176
Si -81.0419 -9.43322 -0.00583826
Si -77.8081 -9.08959 -0.00570202
O -79.7434 -5.87692 -0.00716315
Si -81.3449 -6.25749 -0.00630321
Si -78.1043 -5.98401 -0.00708351
O -81.9064 -5.51651 1.35765
O -81.6127 -7.88536 -0.00605768
O -81.9064 -5.51667 4.08548
O -77.6268 -5.23429 1.35683
O -77.5231 -7.49549 -0.00682017
O -77.6267 -5.23442 4.08473
O -78.7162 -14.1016 2.72232
Si -80.3621 -14.1265 2.72227
Si -77.1537 -13.5949 2.72241
O -79.2729 -10.5005 2.72192
Si -80.8495 -10.9738 2.72206
Si -77.6304 -10.5118 2.72219
O -81.4534 -10.2669 4.08602
O -81.0221 -12.6145 2.72219
O -81.4535 -10.2669 1.35814
O -77.1975 -9.73602 4.08645
O -76.962 -11.9868 2.72167
O -77.1975 -9.73487 1.35854
O -77.7682 -18.6515 -0.00537941
Si -79.4098 -18.7725 -0.00554777
Si -76.238 -18.0545 -0.00543629
O -78.5339 -15.0889 -0.00522851
Si -80.0802 -15.6534 -0.0056156
Si -76.8935 -15.0044 -0.00547161
O -80.7243 -14.9829 1.35833
O -80.1568 -17.3014 -0.00561127
O -80.7243 -14.9828 4.08625
O -76.5065 -14.2045 1.35866
O -76.1403 -16.438 -0.00585956
O -76.5067 -14.2038 4.08658
O -76.5567 -23.1386 2.72264
Si -78.1884 -23.3553 2.72238
Si -75.064 -22.4531 2.72227
O -77.5289 -19.6268 2.72224
Si -79.0395 -20.2806 2.72236
Si -75.8962 -19.4465 2.72247
O -79.7215 -19.6486 4.08634
O -79.0199 -21.9303 2.72234
O -79.7215 -19.6486 1.35838
O -75.5565 -18.6252 4.08652
O -75.0607 -20.8337 2.72229
O -75.5565 -18.6249 1.35862
O -75.0852 -27.547 -0.00548465
Si -76.7015 -27.859 -0.00546645
Si -73.6351 -26.7754 -0.00560152
O -76.2608 -24.0983 -0.00586092
Si -77.7307 -24.8392 -0.00555607
Si -74.6414 -23.8226 -0.00565736
O -78.4484 -24.2482 1.35849
O -77.6148 -26.485 -0.0055694
O -78.4485 -24.2481 4.08628
O -74.3504 -22.9827 1.35821
O -73.7263 -25.1586 -0.00542271
O -74.3503 -22.9828 4.08625
O -73.3572 -31.8614 2.72228
Si -74.9524 -32.2673 2.72236
Si -71.9549 -31.0062 2.7223
O -74.7338 -28.4874 2.72216
Si -76.1576 -29.3134 2.72243
Si -73.1333 -28.1178 2.7223
O -76.9087 -28.7655 4.08647
O -75.945 -30.9495 2.72233
O -76.9088 -28.7654 1.35849
O -72.8918 -27.2623 4.08617
O -72.1412 -29.3976 2.72262
O -72.8916 -27.2627 1.35822
O -71.3782 -36.0667 -0.0053272
Si -72.9469 -36.5652 -0.00550882
Si -70.0283 -35.1308 -0.00550998
O -72.9507 -32.7791 -0.00539764
Si -74.3236 -33.6871 -0.0055443
Si -71.3746 -32.3165 -0.00559767
O -75.1059 -33.1844 1.35841
O -74.0152 -35.3079 -0.00558088
O -75.1059 -33.1843 4.08637
O -71.184 -31.4482 1.35824
O -70.309 -33.5359 -0.00525282
O -71.1839 -31.4486 4.08614
O -69.1562 -40.1487 2.72237
Si -70.693 -40.7384 2.7223
Si -67.8634 -39.1354 2.7224
O -70.9184 -36.9593 2.72212
Si -72.236 -37.9459 2.72239
Si -69.3721 -36.405 2.72238
O -73.0464 -37.4897 4.08631
O -71.8331 -39.5458 2.72237
O -73.0465 -37.4897 1.35849
O -69.2328 -35.5272 4.08634
O -68.2369 -37.5597 2.72255
O -69.2326 -35.5274 1.35827
O -66.6996 -44.0945 -0.0053953
Si -68.1992 -44.7731 -0.00550574
Si -65.4685 -43.0071 -0.00550099
O -68.6449 -41.013 -0.00545385
Si -69.9024 -42.0752 -0.00560909
Si -67.1338 -40.3691 -0.0055112
O -70.7381 -41.6671 1.35829
O -69.4069 -43.649 -0.0055555
O -70.7381 -41.6672 4.08628
O -67.046 -39.4846 1.35843
O -65.9332 -41.4558 -0.00549962
O -67.046 -39.4847 4.08632
O -64.0155 -47.8889 2.72218
Si -65.4728 -48.6544 2.72235
Si -62.8502 -46.7313 2.72242
O -66.1389 -44.9273 2.72226
Si -67.3319 -46.0615 2.7224
Si -64.6681 -44.196 2.7224
O -68.1899 -45.703 4.08636
O -66.7446 -47.6033 2.72236
O -68.19 -45.703 1.35845
O -64.6321 -43.308 4.0864
O -63.4056 -45.2101 2.72238
O -64.6321 -43.3079 1.35843
O -61.1134 -51.5198 -0.0055291
Si -62.5236 -52.369 -0.00544952
Si -60.0178 -50.2959 -0.00553233
O -63.4064 -48.6875 -0.00537266
Si -64.5311 -49.8894 -0.00554259
Si -61.9809 -47.8712 -0.00547762
O -65.4088 -49.582 1.35838
O -63.8546 -51.3941 -0.00551067
O -65.4088 -49.582 4.08635
O -61.9974 -46.9825 1.35852
O -60.6612 -48.8098 -0.00550877
O -61.9975 -46.9825 4.08636
O 58.0417 54.9468 2.72038
Si 59.3998 55.8768 2.72007
Si 57.0196 53.6609 2.72013
O 60.4961 52.2532 2.72045
Si 61.5487 53.5187 2.72018
Si 59.1209 51.355 2.72024
O 62.4428 53.2631 4.08409
O 60.7855 54.9814 2.7201
O 62.4428 53.2631 1.35626
O 59.1891 50.4687 4.08419
O 57.7487 52.2149 2.72026
O 59.1891 50.4688 1.35622
O 54.7369 58.2143 -0.00772729
Si 56.0385 59.2219 -0.00799408
Si 53.7913 56.8712 -0.00803332
O 57.344 55.6685 -0.00818599
Si 58.321 56.9933 -0.00787576
Si 56.0235 54.6916 -0.00780934
O 59.2283 56.7906 1.35609
O 57.474 58.409 -0.00793719
O 59.2284 56.7906 4.08402
O 56.1436 53.8108 1.35611
O 54.6034 55.4701 -0.00766678
O 56.1434 53.8109 4.08402
O 51.2482 61.2847 2.72003
Si 52.489 62.3663 2.71975
Si 50.382 59.8891 2.71978
O 53.9984 58.8944 2.71966
Si 54.8968 60.2736 2.71989
Si 52.7368 57.8425 2.71985
O 55.8144 60.1241 4.08383
O 53.9692 61.6379 2.71982
O 55.8144 60.1241 1.35597
O 52.908 56.9701 4.08376
O 51.274 58.5374 2.72016
O 52.9076 56.9703 1.35574
O 47.5879 64.1484 -0.00795548
Si 48.764 65.3 -0.00808097
Si 46.8041 62.7048 -0.00825232
O 50.4716 61.9212 -0.00850648
Si 51.2886 63.3502 -0.00819361
Si 49.2732 60.7978 -0.00816164
O 52.2132 63.2539 1.35577
O 50.2839 64.6586 -0.00814881
O 52.2132 63.254 4.08367
O 49.4945 59.9367 1.35566
O 47.7726 61.407 -0.00790132
O 49.4941 59.9369 4.08363
O -51.2146 -61.3155 2.7223
Si -52.4555 -62.397 2.72248
Si -50.3483 -59.9199 2.72251
O -53.9651 -58.9257 2.72224
Si -54.8636 -60.3048 2.7225
Si -52.7033 -57.8739 2.72242
O -55.7812 -60.155 4.08643
O -53.9359 -61.669 2.72252
O -55.7812 -60.155 1.35856
O -52.8739 -57.0017 4.08636
O -51.2404 -58.5685 2.72259
O -52.8738 -57.0017 1.35842
O -47.553 -64.1782 -0.00568371
Si -48.7292 -65.3297 -0.00543726
Si -46.7695 -62.7345 -0.00542884
O -50.4378 -61.9514 -0.00531146
Si -51.2545 -63.3805 -0.00541954
Si -49.2392 -60.8282 -0.00538884
O -52.1793 -63.2846 1.35845
O -50.2492 -64.6885 -0.00537172
O -52.1792 -63.2846 4.08648
O -49.4606 -59.9673 1.35858
O -47.7385 -61.4369 -0.00531087
O -49.4605 -59.9674 4.08638
O -43.7333 -66.8254 2.72278
Si -44.8407 -68.0431 2.72253
Si -43.0345 -65.3388 2.72252
O -46.7412 -64.7685 2.72272
Si -47.4738 -66.2425 2.72249
Si -45.6099 -63.5776 2.7225
O -48.4025 -66.2 4.08645
O -46.3951 -67.4906 2.72249
O -48.4024 -66.2 1.35848
O -45.8805 -62.7307 4.08639
O -44.0766 -64.0991 2.72254
O -45.8805 -62.7309 1.35854
O -39.7661 -69.246 -0.00529647
Si -40.8012 -70.5259 -0.00541095
Si -39.1542 -67.7216 -0.00541733
O -42.8883 -67.3677 -0.00581135
Si -43.5346 -68.8815 -0.00540469
Si -41.8277 -66.1132 -0.00541814
O -44.4641 -68.893 1.35857
O -42.3851 -70.0647 -0.00540847
O -44.4641 -68.893 4.08648
O -42.1472 -65.2836 1.35854
O -40.2667 -66.5446 -0.00542393
O -42.1472 -65.2835 4.08647
O 35.6967 71.3999 2.7199
Si 36.656 72.7374 2.71958
Si 35.1744 69.8424 2.71982
O 38.9232 69.7057 2.71925
Si 39.4805 71.2545 2.7196
Si 37.937 68.3921 2.71953
O 40.4079 71.32 4.08351
O 38.2641 72.3689 2.71958
O 40.4079 71.3201 1.35572
O 38.304 67.5827 4.08378
O 36.3535 68.7321 2.71868
O 38.3046 67.5822 1.35577
O 31.4764 73.3472 -0.00848542
Si 32.357 74.7379 -0.00856377
Si 31.0448 71.7622 -0.00865615
O 34.7945 71.841 -0.00843287
Si 35.2616 73.4194 -0.00834549
Si 33.8859 70.4725 -0.00812556
O 36.1836 73.538 1.35562
O 33.9834 74.4623 -0.00837376
O 36.1837 73.5381 4.08354
O 34.2985 69.6857 1.3563
O 32.2856 70.7212 -0.00959971
O 34.3 69.6848 4.0842
O 27.1512 75.0479 2.71743
Si 27.9499 76.4872 2.71861
Si 26.8117 73.4407 2.7181
O 30.5505 73.7357 2.71938
Si 30.9258 75.3384 2.71932
Si 29.7225 72.3171 2.71924
O 31.8394 75.51 4.08327
O 29.5895 76.3058 2.71918
O 31.8393 75.5101 1.35532
O 30.1795 71.5552 4.0836
O 28.1104 72.473 2.71806
O 30.181 71.5546 1.35571
O 22.7351 76.4958 -0.0100928
Si 23.4492 77.9788 -0.00856983
Si 22.4887 74.8717 -0.00799798
O 26.2043 75.3824 -0.00912493
Si 26.4864 77.0041 -0.00925423
Si 25.4595 73.9183 -0.00975278
O 27.3888 77.2282 1.35456
O 25.0966 77.8927 -0.00883329
O 27.3883 77.2281 4.08245
O 25.9607 73.1837 1.35412
O 23.8412 73.9807 -0.00988502
O 25.9606 73.1839 4.08208
O -27.1213 -75.0843 2.72285
Si -27.9203 -76.5234 2.72257
Si -26.7812 -73.4773 2.72242
O -30.5203 -73.7715 2.72264
Si -30.896 -75.3741 2.72238
Si -29.6918 -72.3532 2.72253
O -31.8096 -75.5454 4.08636
O -29.5599 -76.3418 2.72239
O -31.8096 -75.5454 1.35838
O -30.1493 -71.5908 4.0865
O -28.0798 -72.5094 2.7224
O -30.1494 -71.5908 1.3586
O -22.7048 -76.5323 -0.00556587
Si -23.4194 -78.0152 -0.00552153
Si -22.4583 -74.9083 -0.0053768
O -26.1744 -75.4187 -0.00568063
Si -26.4568 -77.0403 -0.00536349
Si -25.4291 -73.9548 -0.00551985
O -27.3589 -77.2644 1.35862
O -25.0668 -77.9288 -0.00544724
O -27.3591 -77.2644 4.08657
O -25.93 -73.2205 1.3585
O -23.8107 -74.0173 -0.00556969
O -25.93 -73.2203 4.08635
O -18.2121 -77.7236 2.72284
Si -18.84 -79.2452 2.72261
Si -18.06 -76.088 2.72241
O -21.7401 -76.8116 2.72263
Si -21.9284 -78.4468 2.7224
Si -21.0808 -75.3071 2.72254
O -22.8163 -78.7226 4.08632
O -20.4896 -79.2539 2.72245
O -22.8162 -78.7225 1.35845
O -21.6232 -74.6027 4.08658
O -19.4615 -75.2764 2.72228
O -21.6235 -74.6027 1.35865
O -13.6582 -78.6531 -0.00519072
Si -14.197 -80.2084 -0.00550086
Si -13.601 -77.0114 -0.00542652
O -17.2331 -77.9465 -0.00579534
Si -17.3265 -79.5899 -0.00532817
Si -16.6618 -76.4064 -0.00552929
O -18.1968 -79.9164 1.35865
O -15.8434 -80.3124 -0.00543681
O -18.197 -79.9165 4.08662
O -17.2441 -75.7347 1.3585
O -15.0471 -76.2821 -0.00556046
O -17.2442 -75.7346 4.08636
O 13.6882 78.615 -0.00810822
O 9.08836 79.2795 2.71856
Si 9.53607 80.8634 2.71859
Si 9.12645 77.6373 2.71896
O 12.6982 78.7808 2.71977
Si 12.6961 80.4269 2.71931
Si 12.2169 77.2103 2.71936
O 13.5458 80.8034 4.08344
O 11.1737 81.0623 2.71877
O 13.5465 80.8033 1.3556
O 12.8361 76.5735 4.08379
O 10.6121 76.9928 2.71827
O 12.8377 76.5732 1.35576
O 4.45849 79.6771 -0.00802844
Si 4.81332 81.2844 -0.00776407
Si 4.59146 78.0398 -0.00850155
O 8.09047 79.3885 -0.00873751
Si 7.99309 81.0316 -0.00929278
Si 7.70141 77.7926 -0.00891844
O 8.82002 81.4563 1.35465
O 6.43659 81.5781 -0.00908183
O 8.81969 81.4562 4.08237
O 8.35678 77.1922 1.3551
O 6.11196 77.4825 -0.0092693
O 8.35756 77.1923 4.08325
O -0.187232 79.8034 2.71869
Si 0.0740018 81.4286 2.71838
Si 0.0407312 78.1767 2.71853
O 3.45579 79.7271 2.72004
Si 3.26324 81.3619 2.72015
Si 3.15979 78.1114 2.71943
O 4.06289 81.8344 4.08463
O 1.67741 81.8164 2.71874
O 4.06489 81.8342 1.3568
O 3.84907 77.5505 4.08355
O 1.59115 77.709 2.71907
O 3.84963 77.5505 1.35558
Si -4.66555 81.2987 -0.00880675
Si -4.51023 78.0503 -0.00893313
O -1.19074 79.7955 -0.00976663
Si -1.47788 81.4163 -0.009553
Si -1.3926 78.1653 -0.00939351
O -0.7058 81.9341 1.35431
O -3.08725 81.7786 -0.00924255
O -0.706266 81.9342 4.08217
O -0.671334 77.6453 1.35433
O -2.93537 77.673 -0.00860834
O -0.672143 77.6452 4.0823
O -4.42788 -79.713 -0.00576341
O 0.217662 -79.8404 2.72234
Si -0.0433615 -81.4656 2.72249
Si -0.0101918 -78.2137 2.72252
O -3.4253 -79.7633 2.72292
Si -3.23262 -81.398 2.72248
Si -3.12933 -78.1476 2.72253
O -4.03335 -81.8704 4.0864
O -1.64694 -81.853 2.72251
O -4.03329 -81.8703 1.3585
O -3.81893 -77.5865 4.08644
O -1.56055 -77.7456 2.72256
O -3.81887 -77.5866 1.35855
O 4.86312 -79.6991 -0.00531632
Si 4.69676 -81.3367 -0.00543355
Si 4.54103 -78.0883 -0.00541283
O 1.22156 -79.8331 -0.00521853
Si 1.50887 -81.4538 -0.00541424
Si 1.42329 -78.2029 -0.00538154
O 0.736745 -81.9714 1.3586
O 3.11831 -81.8163 -0.00546334
O 0.736755 -81.9714 4.08637
O 0.702454 -77.6825 1.35848
O 2.96619 -77.7109 -0.00538031
O 0.702489 -77.6826 4.08654
O 9.49203 -79.2863 2.7222
Si 9.42122 -80.9308 2.72245
Si 9.07671 -77.6971 2.72249
O 5.8646 -79.6328 2.72223
Si 6.24561 -81.2342 2.72247
Si 5.9712 -77.9937 2.72248
O 5.50503 -81.796 4.08646
O 7.87348 -81.5018 2.7225
O 5.50501 -81.796 1.3585
O 5.22138 -77.5164 4.08643
O 7.48257 -77.4122 2.72248
O 5.22137 -77.5164 1.35855
Si 14.1141 -80.2508 -0.00544023
Si 13.582 -77.0426 -0.00547622
O 10.4879 -79.162 -0.0051696
Si 10.9615 -80.7384 -0.00544107
Si 10.4989 -77.5194 -0.00540092
O 10.2548 -81.3424 1.35853
O 12.6022 -80.911 -0.00543675
O 10.2549 -81.3423 4.08636
O 9.72254 -77.0865 1.3585
O 11.9739 -76.851 -0.00540695
O 9.72255 -77.0865 4.0865
O -14.0587 78.5689 -0.00891769
O -18.6092 77.6222 2.71884
Si -18.7293 79.2638 2.71887
Si -18.0126 76.0917 2.719
O -15.0461 78.3869 2.71889
Si -15.6102 79.9332 2.71905
Si -14.9622 76.7464 2.71905
O -14.9397 80.5772 4.08307
O -17.2581 80.0103 2.71893
O -14.9395 80.5772 1.35514
O -14.1618 76.3594 4.08294
O -16.3961 75.9937 2.71915
O -14.1621 76.3593 1.35502
O -23.0969 76.414 -0.009214
Si -23.3124 78.0458 -0.00897468
Si -22.4128 74.9206 -0.0089608
O -19.5846 77.3833 -0.00896876
Si -20.2372 78.8945 -0.00903632
Si -19.4053 75.7505 -0.00890941
O -19.605 79.5761 1.35491
O -21.8869 78.8763 -0.00889865
O -19.6051 79.5761 4.08275
O -18.5838 75.4105 1.35499
O -20.7933 74.9161 -0.00896101
O -18.5838 75.4105 4.08302
O -27.507 74.9465 2.71893
Si -27.8171 76.5631 2.71902
Si -26.7372 73.4955 2.71897
O -24.057 76.1188 2.71894
Si -24.7964 77.5895 2.71895
Si -23.7832 74.4992 2.71896
O -24.2047 78.3068 4.08283
O -26.4423 77.4752 2.71916
O -24.2049 78.3066 1.35493
O -22.9435 74.2074 4.0829
O -25.1202 73.5854 2.71901
O -22.9435 74.2074 1.355
Si -32.2271 74.8182 -0.00878595
Si -30.9702 71.8189 -0.0088707
O -28.448 74.5955 -0.00887323
Si -29.272 76.0204 -0.00888007
Si -28.0803 72.9946 -0.00893103
O -28.7232 76.7712 1.35496
O -30.9083 75.8095 -0.00871854
O -28.7233 76.7712 4.08299
O -27.225 72.7524 1.35501
O -29.3613 72.0038 -0.00876772
O -27.2252 72.7524 4.08287
O 23.126 -76.4474 -0.00556875
Si 22.4412 -74.9543 -0.00554522
O 27.5352 -74.9771 2.72295
Si 27.8459 -76.5936 2.72242
Si 26.7647 -73.5264 2.72237
O 24.0856 -76.1513 2.72265
Si 24.8258 -77.6215 2.7224
Si 23.8112 -74.5318 2.72237
O 24.2349 -78.3393 4.0864
O 26.4716 -77.5063 2.72226
O 24.2347 -78.3393 1.35853
O 22.9712 -74.2407 4.0863
O 25.1477 -73.6172 2.7225
O 22.9714 -74.2407 1.35831
O 31.8519 -73.2532 -0.00531262
Si 32.2559 -74.8489 -0.00548593
Si 30.9983 -71.8498 -0.00557576
O 28.4763 -74.6259 -0.00603275
Si 29.3006 -76.0507 -0.00551879
Si 28.108 -73.0252 -0.00559403
O 28.7521 -76.8014 1.35846
O 30.937 -75.84 -0.00539953
O 28.7521 -76.8016 4.08639
O 27.2525 -72.7834 1.35834
O 29.3893 -72.0346 -0.00564284
O 27.2525 -72.7832 4.0863
O 36.0608 -71.2815 2.72251
Si 36.5571 -72.8509 2.72228
Si 35.127 -69.9301 2.72237
O 32.7708 -72.8478 2.72204
Si 33.6766 -74.2223 2.72241
Si 32.3101 -71.2711 2.72231
O 33.1725 -75.0037 4.08626
O 35.2979 -73.9169 2.72268
O 33.1729 -75.0037 1.35838
O 31.4421 -71.0795 4.08632
O 33.5315 -70.2077 2.72218
O 31.4419 -71.0795 1.35839
Si 40.7343 -70.6054 -0.00534978
O 36.9547 -70.8236 -0.0060505
Si 37.939 -72.1429 -0.00565262
Si 36.4031 -69.2764 -0.00556402
O 37.4812 -72.9523 1.3582
O 39.5397 -71.7432 -0.00523177
O 37.4817 -72.9522 4.08605
O 35.5255 -69.1354 1.35843
O 37.5603 -68.1435 -0.00560457
O 35.5252 -69.1354 4.0864
O -40.1192 69.0373 -0.00828407
Si -39.1085 67.7425 -0.00853215
O -44.0713 66.5912 2.71935
Si -44.7462 68.0926 2.71949
Si -42.9868 65.3576 2.71958
O -40.9851 68.5289 2.71902
Si -42.0443 69.7888 2.71941
Si -40.3445 67.0163 2.71935
O -41.6343 70.6231 4.08343
O -43.6192 69.2974 2.71938
O -41.6343 70.6232 1.35545
O -39.4601 66.9262 4.08328
O -41.4343 65.8185 2.71926
O -39.46 66.9262 1.35551
O -47.8731 63.9184 -0.00784127
Si -48.6342 65.3779 -0.00839228
Si -46.7188 62.7497 -0.00831819
O -44.9054 66.0327 -0.00819735
Si -46.0362 67.2289 -0.00841449
Si -44.1779 64.56 -0.00832533
O -45.676 68.0859 1.35563
O -47.5796 66.6465 -0.00861401
O -45.6758 68.086 4.08346
O -43.29 64.5218 1.35575
O -45.1958 63.3005 -0.00886503
O -43.2896 64.5221 4.08369
O -51.5136 61.0302 2.71962
Si -52.3584 62.443 2.71925
Si -50.2936 59.9303 2.71933
O -48.6735 63.3125 2.7195
Si -49.8717 64.4411 2.71949
Si -47.8617 61.8845 2.71956
O -49.5619 65.3173 4.08358
O -51.379 63.7705 2.71915
O -49.5617 65.3176 1.35563
O -46.9733 61.8977 4.08375
O -48.8051 60.5682 2.71876
O -46.9725 61.8981 1.35588
Si -55.9064 59.297 -0.00945163
O -52.2778 60.3789 -0.00858284
Si -53.5396 61.4359 -0.00868493
Si -51.3846 59.0004 -0.00860752
O -53.281 62.3287 1.35535
O -55.0054 60.679 -0.0089297
O -53.2809 62.3289 4.08327
O -50.4983 59.0649 1.35557
O -52.2501 57.6317 -0.00938354
O -50.4976 59.0655 4.08354