2736
 Atoms. Timestep: 20273
O 9.44326 -55.468 1.70262
Si 9.44688 -57.1143 1.70225
Si 8.94882 -53.9028 1.70189
O 5.82309 -55.9723 1.70213
Si 6.26959 -57.5569 1.70225
Si 5.87068 -54.3316 1.70159
O 5.53431 -58.1395 3.06697
O 7.91572 -57.7483 1.70234
O 5.53452 -58.1398 0.337557
O 5.14605 -53.8716 3.08005
O 7.34973 -53.6863 1.66122
O 5.09242 -53.8765 0.350592
O 13.9873 -54.4871 -1.02721
Si 14.1269 -56.1274 -1.02788
Si 13.3653 -52.968 -1.02874
O 10.4216 -55.2899 -1.02541
Si 10.9975 -56.8321 -1.02713
Si 10.3333 -53.6508 -1.02743
O 10.3133 -57.4739 0.337584
O 12.6538 -56.8863 -1.02744
O 10.3133 -57.4737 3.06698
O 9.57244 -53.2523 0.350676
O 11.7537 -52.8849 -1.06722
O 9.52051 -53.262 3.08009
O 34.6759 -44.2427 1.70143
Si 35.4611 -45.6896 1.70027
Si 33.4976 -43.0999 1.6998
O 31.7297 -46.4051 1.70136
Si 32.8752 -47.5875 1.70053
Si 30.9919 -44.9388 1.7
O 32.5055 -48.4494 3.06527
O 34.4148 -46.9745 1.70046
O 32.5056 -48.4494 0.335826
O 30.1325 -44.8803 3.07661
O 31.9871 -43.6683 1.66427
O 30.0937 -44.9063 0.347172
O 38.2112 -41.2241 -1.02835
Si 39.1128 -42.6016 -1.0293
Si 36.9428 -40.1823 -1.03012
O 35.4531 -43.6218 -1.02889
Si 36.692 -44.7059 -1.02919
Si 34.5971 -42.2213 -1.02966
O 36.3941 -45.5953 0.335504
O 38.1759 -43.9683 -1.02903
O 36.3945 -45.5952 3.06483
O 33.7357 -42.2334 0.346851
O 35.4843 -40.8732 -1.0653
O 33.6993 -42.2624 3.07636
O 51.5497 -22.3828 1.70126
Si 52.9285 -23.2824 1.70041
Si 49.9698 -21.9376 1.69975
O 49.9872 -25.6868 1.70162
Si 51.5571 -26.1823 1.70077
Si 48.6411 -24.7474 1.7004
O 51.6416 -27.1166 3.06545
O 52.6195 -24.9105 1.70068
O 51.6416 -27.1166 0.336092
O 47.858 -25.1033 3.07773
O 48.912 -23.1564 1.66293
O 47.8349 -25.1472 0.348276
O 56.2204 0.227489 -1.02715
Si 54.6715 -18.8283 -1.029
Si 51.6122 -17.7317 -1.02963
O 51.9377 -21.4664 -1.02852
Si 53.5431 -21.831 -1.02902
Si 50.5187 -20.6412 -1.02967
O 53.7042 -22.7553 0.335612
O 54.4973 -20.4763 -1.02885
O 53.7043 -22.755 3.06504
O 49.7673 -21.0612 0.347311
O 50.658 -19.0333 -1.0662
O 49.7485 -21.1055 3.0767
O 56.0189 4.87201 1.70131
Si 57.6594 4.73404 1.70074
Si 54.4169 4.51438 1.70008
O 56.2095 1.22204 1.70201
Si 57.8266 1.53062 1.70102
Si 54.5789 1.41056 1.70074
O 58.344 0.74831 3.06575
O 58.1591 3.15407 1.70099
O 58.3441 0.748282 0.336337
O 54.0582 0.726337 3.07834
O 54.0633 2.93979 1.66215
O 54.0587 0.675721 0.34893
O 55.4355 9.48429 -1.02742
Si 57.0817 9.48214 -1.02824
Si 53.8684 8.99563 -1.0288
O 55.9264 5.86252 -1.02784
Si 57.5125 6.30332 -1.02866
Si 54.2858 5.91577 -1.02933
O 58.0926 5.56592 0.335969
O 57.7101 7.9487 -1.0283
O 58.0925 5.56632 3.06531
O 53.8231 5.1907 0.348064
O 53.6459 7.39725 -1.0674
O 53.8278 5.14093 3.07755
O 54.4723 14.0323 1.70405
Si 56.1131 14.1662 1.70182
Si 52.951 13.4158 1.70142
O 55.2612 10.4634 1.70209
Si 56.8055 11.0339 1.7012
Si 53.6218 10.3812 1.70062
O 57.4445 10.3471 3.06587
O 56.8661 12.69 1.70144
O 57.4445 10.3473 0.33641
O 53.2206 9.62067 3.07814
O 52.8615 11.8046 1.66221
O 53.2295 9.57099 0.348774
O 53.1369 18.4852 -1.02821
Si 54.761 18.7542 -1.02834
Si 51.6718 17.745 -1.02925
O 54.2178 14.9938 -1.0276
Si 55.7097 15.6898 -1.02768
Si 52.5908 14.7762 -1.02808
O 56.403 15.0584 0.337189
O 55.6334 17.3453 -1.02789
O 56.4034 15.0582 3.06656
O 52.2539 13.9856 0.349694
O 51.7155 16.1319 -1.06665
O 52.2666 13.936 3.07908
O 51.4369 22.8118 1.70208
Si 53.0333 23.214 1.70133
Si 50.038 21.9531 1.70084
O 52.8037 19.422 1.70187
Si 54.2329 20.2391 1.70109
Si 51.2003 19.0707 1.70019
O 54.9765 19.667 3.06569
O 54.0196 21.8824 1.70136
O 54.9763 19.6674 0.336234
O 50.93 18.254 3.07739
O 50.2155 20.3491 1.66237
O 50.9466 18.2077 0.347992
O 49.3854 26.9829 -1.02636
Si 50.9431 27.5157 -1.0279
Si 48.062 26.0118 -1.02823
O 51.027 23.7176 -1.02693
Si 52.3839 24.6499 -1.02806
Si 49.4581 23.2351 -1.02854
O 53.1723 24.1415 0.336565
O 52.0358 26.27 -1.02797
O 53.1722 24.1416 3.06606
O 49.2563 22.3993 0.348949
O 48.3712 24.4279 -1.06644
O 49.277 22.3536 3.0783
O 46.9979 30.9717 1.70163
Si 48.5063 31.6311 1.70086
Si 45.7593 29.8946 1.69974
O 48.9025 27.8523 1.70203
Si 50.1779 28.8934 1.70146
Si 47.3788 27.242 1.70114
O 51.0052 28.4516 3.06621
O 49.6978 30.4795 1.70134
O 51.0054 28.4517 0.336784
O 47.2465 26.3923 3.07858
O 46.1976 28.3414 1.66313
O 47.2706 26.3485 0.349187
O 44.2881 34.7488 -1.02616
Si 45.7369 35.5305 -1.0273
Si 43.1425 33.5732 -1.02778
O 46.4448 31.7982 -1.02905
Si 47.63 32.9409 -1.02857
Si 44.9767 31.0642 -1.02971
O 48.4912 32.5686 0.335942
O 47.0199 34.4816 -1.02776
O 48.4909 32.5693 3.06535
O 44.9158 30.2054 0.347125
O 43.7082 32.0618 -1.06574
O 44.9421 30.1657 3.07654
O 41.2768 38.2902 1.70245
Si 42.6562 39.1889 1.70193
Si 40.2321 37.0242 1.70109
O 43.6687 35.5268 1.70322
Si 44.7554 36.7634 1.70214
Si 42.266 34.6742 1.70162
O 45.6442 36.4639 3.0669
O 44.0209 38.2489 1.70206
O 45.6443 36.4638 0.337522
O 42.2755 33.8142 3.07901
O 40.92 35.5644 1.66349
O 42.3065 33.7752 0.349606
O 37.9834 41.5715 -1.02612
Si 39.2839 42.5809 -1.02724
Si 37.0469 40.2235 -1.02785
O 40.5954 39.0149 -1.02667
Si 41.5764 40.337 -1.02747
Si 39.2679 38.0494 -1.02832
O 42.487 40.1114 0.337183
O 40.7216 41.7567 -1.02724
O 42.4868 40.1116 3.06657
O 39.3481 37.193 0.349032
O 37.8529 38.8254 -1.06647
O 39.3822 37.1568 3.07844
O 34.4304 44.5697 1.70368
Si 35.643 45.6831 1.70243
Si 33.6086 43.1488 1.70176
O 37.2447 42.2376 1.70267
Si 38.113 43.6362 1.70216
Si 36.0015 41.1656 1.70151
O 39.0391 43.4864 3.06687
O 37.1439 44.9805 1.70236
O 39.039 43.4866 0.337379
O 36.1516 40.3193 3.07924
O 34.5274 41.8222 1.66188
O 36.1896 40.2849 0.34989
O 30.6414 47.2636 -1.02593
Si 31.7578 48.4735 -1.02679
Si 29.9402 45.7794 -1.02738
O 33.6393 45.1722 -1.02639
Si 34.3888 46.6379 -1.02698
Si 32.489 44.0012 -1.02772
O 35.3241 46.5653 0.337738
O 33.3117 47.8974 -1.02675
O 35.324 46.5655 3.06708
O 32.7075 43.171 0.35067
O 30.9658 44.5336 -1.06944
O 32.7502 43.1384 3.08014
O 26.6413 49.6322 1.70408
Si 27.6534 50.9306 1.70299
Si 26.0656 48.0951 1.70251
O 29.803 47.7978 1.70349
Si 30.4283 49.3207 1.70264
Si 28.7537 46.5356 1.70203
O 31.3666 49.3261 3.06725
O 29.2499 50.486 1.70286
O 31.3664 49.3262 0.337892
O 29.0397 45.727 3.08084
O 27.1914 46.9391 1.65973
O 29.0864 45.6972 0.351388
O 22.4587 51.6616 -1.02463
Si 23.3595 53.0396 -1.02632
Si 22.0126 50.0819 -1.02681
O 25.7613 50.0951 -1.02534
Si 26.2582 51.6647 -1.02642
Si 24.8204 48.7501 -1.02692
O 27.1927 51.7479 0.338318
O 24.9874 52.7285 -1.02646
O 27.1927 51.7478 3.06772
O 25.1719 47.9684 0.352297
O 23.2301 49.0231 -1.07075
O 25.2223 47.9419 3.08168
O 18.1221 53.3373 1.70382
Si 18.9054 54.7853 1.70268
Si 17.8088 51.7261 1.70209
O 21.5434 52.0503 1.70372
Si 21.9082 53.6556 1.70303
Si 20.7175 50.6318 1.70255
O 22.8325 53.8158 3.06781
O 20.5535 54.6104 1.70295
O 22.8326 53.816 0.338367
O 21.1321 49.882 3.08193
O 19.1101 50.772 1.65872
O 21.1853 49.8593 0.352619
O 13.6609 54.6461 -1.02624
Si 14.3214 56.1541 -1.02677
Si 13.4825 53.0144 -1.02736
O 17.1777 53.6483 -1.0261
Si 17.4078 55.2784 -1.02676
Si 16.4724 52.1661 -1.02731
O 18.3158 55.515 0.337864
O 15.9783 56.117 -1.02662
O 18.3155 55.5152 3.06729
O 16.9487 51.4532 0.351722
O 14.8587 52.1719 -1.06967
O 17.0021 51.4356 3.08111
O 9.10654 55.5795 1.70283
Si 9.63944 57.1372 1.70242
Si 9.06406 53.9387 1.70166
O 12.6937 54.8774 1.70412
Si 12.7879 56.521 1.70266
Si 12.114 53.3417 1.70209
O 13.6731 56.8324 3.06731
O 11.2937 57.2379 1.70254
O 13.673 56.8322 0.337968
O 12.6484 52.6708 3.08092
O 10.5055 53.2133 1.66003
O 12.7024 52.658 0.351457
O 4.4904 56.1326 -1.02694
Si 4.8922 57.7292 -1.02744
Si 4.58415 54.4939 -1.02812
O 8.12324 55.73 -1.02554
Si 8.08086 57.3757 -1.02697
Si 7.6731 54.1515 -1.02768
O 8.93712 57.7594 0.337755
O 6.53243 57.9666 -1.02713
O 8.93708 57.7592 3.06713
O 8.262 53.5269 0.350711
O 6.08071 53.8903 -1.06829
O 8.31536 53.5189 3.08013
O -0.155624 56.3008 1.70305
Si 0.112499 57.9251 1.70176
Si 0.0736825 54.6755 1.70126
O 3.49813 56.201 1.70304
Si 3.31938 57.8375 1.70197
Si 3.18036 54.5907 1.70133
O 4.14088 58.2909 3.06661
O 1.72731 58.2978 1.70193
O 4.14065 58.2909 0.337223
O 3.8199 54.017 3.07928
O 1.61514 54.1981 1.66202
O 3.87192 54.0135 0.349867
O -4.7993 56.0827 -1.02777
Si -4.66667 57.7237 -1.02824
Si -4.43631 54.4819 -1.0289
O -1.15002 56.2865 -1.02704
Si -1.4637 57.9026 -1.02771
Si -1.33328 54.6554 -1.02818
O -0.682821 58.4225 0.337007
O -3.08844 58.2292 -1.0279
O -0.682892 58.4227 3.06644
O -0.647996 54.1369 0.349647
O -2.8605 54.1341 -1.06718
O -0.596586 54.1375 3.079
O -26.8909 49.3753 1.70009
Si -27.4282 50.9314 1.69962
Si -25.9162 48.0546 1.69897
O -23.6297 51.0251 1.70017
Si -24.5657 52.3794 1.69963
Si -23.1426 49.4576 1.69916
O -24.0591 53.1691 3.06427
O -26.185 52.0273 1.69977
O -24.0594 53.169 0.334891
O -22.3036 49.2592 3.07538
O -24.3328 48.3676 1.66499
O -22.2624 49.2779 0.34597
O -30.874 46.9768 -1.02904
Si -31.5376 48.4834 -1.02946
Si -29.7937 45.7409 -1.03007
O -27.7599 48.8898 -1.02914
Si -28.8042 50.1625 -1.02978
Si -27.1452 47.3678 -1.03041
O -28.3643 50.9911 0.334884
O -30.389 49.678 -1.02953
O -28.3645 50.991 3.06423
O -26.2922 47.2393 0.34548
O -28.2416 46.1834 -1.06382
O -26.2537 47.2609 3.07498
O -47.1282 30.579 1.70082
Si -48.3404 31.6929 1.69999
Si -45.6429 29.8803 1.69942
O -45.044 33.5814 1.70047
Si -46.5111 34.3281 1.69997
Si -43.8705 32.4337 1.69938
O -46.4408 35.2638 3.06458
O -47.7681 33.2481 1.7001
O -46.441 35.2635 0.335221
O -43.037 32.6592 3.07475
O -44.3989 30.9086 1.66769
O -43.0118 32.6925 0.3453
O -55.4499 9.04005 -1.02864
Si -50.7915 27.5853 -1.02945
Si -47.9538 26.0009 -1.02983
O -47.6617 29.7384 -1.02908
Si -49.1854 30.362 -1.02944
Si -46.3974 28.6916 -1.03001
O -49.1923 31.3002 0.335257
O -50.3492 29.1823 -1.02935
O -49.1925 31.3001 3.06464
O -45.5853 28.9853 0.3453
O -46.7987 27.1282 -1.06188
O -45.5629 29.0204 3.07477
O -56.0146 4.42532 1.70004
Si -57.6101 4.83094 1.69962
Si -54.3756 4.51442 1.69901
O -55.6026 8.05656 1.69977
Si -57.2484 8.01827 1.69961
Si -54.0251 7.60282 1.69902
O -57.6301 8.87519 3.06427
O -57.8433 6.47161 1.69978
O -57.6303 8.87503 0.334925
O -53.3983 8.19664 3.07444
O -53.7675 6.00949 1.66704
O -53.3917 8.23809 0.345019
O -56.1982 -0.220516 -1.02803
Si -57.8217 0.0522928 -1.02945
Si -54.5721 0.00344237 -1.02984
O -56.0863 3.43267 -1.02904
Si -57.7234 3.25871 -1.02977
Si -54.4768 3.11021 -1.03038
O -58.1742 4.08146 0.334904
O -58.1891 1.66828 -1.02955
O -58.1742 4.08118 3.06421
O -53.9007 3.75342 0.344977
O -54.0893 1.54348 -1.06253
O -53.8978 3.79533 3.07445
O -55.997 -4.86562 1.70122
Si -57.6376 -4.72779 1.69996
Si -54.395 -4.50817 1.69931
O -56.1876 -1.21573 1.70001
Si -57.8048 -1.52405 1.69992
Si -54.5571 -1.40421 1.69951
O -58.3219 -0.741338 3.06466
O -58.1373 -3.14765 1.70003
O -58.3221 -0.741419 0.335194
O -54.0362 -0.71624 3.07518
O -54.0412 -2.93348 1.6667
O -54.0365 -0.673201 0.345808
O -55.4127 -9.47816 -1.02848
Si -57.059 -9.47636 -1.02935
Si -53.8456 -8.98967 -1.02999
O -55.9043 -5.85653 -1.0296
Si -57.4905 -6.29743 -1.0295
Si -54.2637 -5.90972 -1.03017
O -58.0704 -5.56003 0.335214
O -57.6876 -7.94295 -1.02931
O -58.0706 -5.56025 3.06456
O -53.8015 -5.18109 0.345522
O -53.6232 -7.39113 -1.0633
O -53.8053 -5.13815 3.07498
O -54.448 -14.0266 1.70009
Si -56.0888 -14.1608 1.70021
Si -52.9267 -13.4103 1.69993
O -55.238 -10.4579 1.70031
Si -56.7822 -11.0285 1.70004
Si -53.5986 -10.3756 1.69938
O -57.4214 -10.3416 3.06468
O -56.8423 -12.6847 1.70024
O -57.4214 -10.3418 0.335328
O -53.1982 -9.6115 3.07527
O -52.8376 -11.7988 1.66594
O -53.2058 -9.56844 0.345791
O -53.111 -18.4801 -1.02928
Si -54.7351 -18.7492 -1.02973
Si -51.6459 -17.74 -1.03044
O -54.1928 -14.989 -1.02714
Si -55.6848 -15.6849 -1.02913
Si -52.5659 -14.7711 -1.0294
O -56.3786 -15.0533 0.335549
O -55.608 -17.3404 -1.02935
O -56.3783 -15.0532 3.06497
O -52.2297 -13.977 0.346737
O -51.69 -16.1267 -1.06386
O -52.2416 -13.9337 3.07609
O -51.4121 -22.8081 1.7014
Si -53.0084 -23.2104 1.70008
Si -50.0131 -21.9495 1.69953
O -52.7775 -19.4178 1.70027
Si -54.2069 -20.2346 1.69969
Si -51.1741 -19.0664 1.69895
O -54.9504 -19.6622 3.06426
O -53.9942 -21.8782 1.70005
O -54.9502 -19.6626 0.334847
O -50.9048 -18.247 3.07491
O -50.1898 -20.3453 1.66479
O -50.9197 -18.2053 0.345535
O -49.3602 -26.9801 -1.02874
Si -50.9179 -27.513 -1.0289
Si -48.0368 -26.0091 -1.02925
O -51.0023 -23.7149 -1.02924
Si -52.3592 -24.647 -1.02935
Si -49.4333 -23.2323 -1.02993
O -53.1474 -24.138 0.335318
O -52.0108 -26.2672 -1.02903
O -53.1475 -24.1383 3.06473
O -49.2325 -22.3942 0.34644
O -48.3462 -24.4251 -1.06454
O -49.2511 -22.3525 3.07581
O -46.9714 -30.9689 1.69936
Si -48.4798 -31.6284 1.69985
Si -45.7326 -29.8919 1.69871
O -48.8767 -27.85 1.70224
Si -50.1521 -28.8909 1.70058
Si -47.353 -27.2395 1.70023
O -50.9798 -28.4491 3.06526
O -49.6715 -30.4769 1.7004
O -50.9796 -28.4489 0.335915
O -47.2218 -26.3879 3.07672
O -46.1712 -28.3387 1.66483
O -47.2445 -26.3475 0.347256
O -44.2621 -34.7473 -1.02695
Si -45.711 -35.5289 -1.02825
Si -43.1165 -33.5717 -1.02856
O -46.418 -31.796 -1.02874
Si -47.6033 -32.9386 -1.02949
Si -44.9499 -31.0619 -1.03067
O -48.4647 -32.5661 0.335003
O -46.9936 -34.4795 -1.02875
O -48.4641 -32.5666 3.06437
O -44.8896 -30.2018 0.345466
O -43.6817 -32.06 -1.06545
O -44.9148 -30.1645 3.07489
O -41.251 -38.2894 1.70227
Si -42.6303 -39.1881 1.70112
Si -40.2064 -37.0233 1.70062
O -43.643 -35.5259 1.70229
Si -44.7297 -36.7625 1.7012
Si -42.2404 -34.6732 1.70083
O -45.6184 -36.4626 3.06601
O -43.9951 -38.248 1.70114
O -45.6185 -36.4624 0.336515
O -42.2498 -33.8127 3.07798
O -40.8943 -35.5634 1.66314
O -42.2803 -33.7744 0.348643
O -37.9571 -41.5706 -1.02718
Si -39.2574 -42.5803 -1.02807
Si -37.0211 -40.2223 -1.02861
O -40.5696 -39.0141 -1.02792
Si -41.5502 -40.3364 -1.0283
Si -39.2422 -38.0484 -1.02882
O -42.4609 -40.1107 0.336346
O -40.6952 -41.7561 -1.02798
O -42.4608 -40.111 3.06575
O -39.3227 -37.1918 0.348403
O -37.8273 -38.8243 -1.06622
O -39.3563 -37.1559 3.07783
O -34.4016 -44.566 1.70319
Si -35.6138 -45.68 1.70233
Si -33.5805 -43.1447 1.70168
O -37.2179 -42.2362 1.70167
Si -38.0857 -43.6352 1.70136
Si -35.9752 -41.1638 1.70076
O -39.0121 -43.4857 3.06593
O -37.1153 -44.9787 1.70201
O -39.0117 -43.4861 0.336501
O -36.1263 -40.3171 3.07812
O -34.5005 -41.819 1.66253
O -36.1632 -40.2837 0.348764
O -30.6106 -47.257 -1.02514
Si -31.7263 -48.4676 -1.02633
Si -29.91 -45.7725 -1.02676
O -33.6094 -45.1676 -1.02598
Si -34.3584 -46.6336 -1.02702
Si -32.4599 -43.9959 -1.02771
O -35.2939 -46.5619 0.337624
O -33.2805 -47.8924 -1.0267
O -35.2938 -46.5619 3.06711
O -32.6801 -43.1652 0.350119
O -30.9362 -44.5271 -1.06662
O -32.7211 -43.1341 3.07946
O -26.6105 -49.6257 1.7036
Si -27.622 -50.9246 1.70293
Si -26.0355 -48.0884 1.70215
O -29.7721 -47.7915 1.70403
Si -30.3968 -49.3146 1.70309
Si -28.7235 -46.5287 1.70265
O -31.3348 -49.3202 3.06789
O -29.2185 -50.48 1.70306
O -31.3349 -49.3202 0.338395
O -29.011 -45.719 3.08052
O -27.1611 -46.9321 1.66306
O -29.0548 -45.6911 0.351214
O -22.4269 -51.6527 -1.02664
Si -23.3272 -53.031 -1.02641
Si -21.9815 -50.0729 -1.02722
O -25.7304 -50.0884 -1.02578
Si -26.2267 -51.6581 -1.02648
Si -24.7902 -48.7429 -1.02728
O -27.1612 -51.7417 0.338182
O -24.9552 -52.7211 -1.02627
O -27.161 -51.7418 3.06757
O -25.1441 -47.9601 0.350628
O -23.1997 -49.0147 -1.06717
O -25.19 -47.936 3.08002
O -18.0895 -53.3249 1.70348
Si -18.8723 -54.7732 1.7033
Si -17.7766 -51.7135 1.70287
O -21.5115 -52.0403 1.70482
Si -21.8757 -53.6458 1.70309
Si -20.6861 -50.6215 1.70227
O -22.8 -53.807 3.06768
O -20.5204 -54.5996 1.70325
O -22.7997 -53.8068 0.338304
O -21.1034 -49.8709 3.08039
O -19.0785 -50.7602 1.66161
O -21.1522 -49.8506 0.350954
O -13.6283 -54.6322 -1.02518
Si -14.2882 -56.1405 -1.02638
Si -13.4501 -53.0005 -1.02703
O -17.1449 -53.6353 -1.02402
Si -17.3747 -55.2655 -1.02603
Si -16.4401 -52.1529 -1.02648
O -18.2825 -55.5028 0.33864
O -15.9451 -56.1038 -1.02622
O -18.2824 -55.5025 3.06809
O -16.9173 -51.4398 0.352127
O -14.8264 -52.1583 -1.06859
O -16.9694 -51.423 3.08152
O -9.07369 -55.5655 1.70375
Si -9.60635 -57.1232 1.703
Si -9.0314 -53.9246 1.70239
O -12.6611 -54.8635 1.70347
Si -12.7548 -56.5071 1.70298
Si -12.0815 -53.3278 1.70233
O -13.64 -56.8185 3.06762
O -11.2606 -57.224 1.7031
O -13.6398 -56.8186 0.33829
O -12.6161 -52.6569 3.08111
O -10.4729 -53.1994 1.66002
O -12.6698 -52.644 0.351677
O -4.45729 -56.1182 -1.02523
Si -4.85903 -57.7147 -1.0264
Si -4.55114 -54.4795 -1.02683
O -8.09048 -55.7158 -1.02518
Si -8.04773 -57.3615 -1.02639
Si -7.64024 -54.1373 -1.027
O -8.90403 -57.7453 0.338269
O -6.49924 -57.9521 -1.02639
O -8.90387 -57.7452 3.06769
O -8.22839 -53.5131 0.351906
O -6.04782 -53.8762 -1.06968
O -8.28359 -53.5047 3.08131
O 0.189183 -56.2864 1.70375
Si -0.0789856 -57.9107 1.7025
Si -0.040193 -54.6611 1.70183
O -3.4648 -56.1867 1.70417
Si -3.28599 -57.8232 1.70299
Si -3.14705 -54.5763 1.70259
O -4.1075 -58.2765 3.06773
O -1.69383 -58.2834 1.70279
O -4.10751 -58.2765 0.338298
O -3.78477 -54.003 3.08157
O -1.58177 -54.184 1.66011
O -3.84078 -53.9991 0.352183
O 4.83326 -56.0687 -1.02523
Si 4.70061 -57.7097 -1.02706
Si 4.47009 -54.4679 -1.02776
O 1.18369 -56.2721 -1.02646
Si 1.49744 -57.8882 -1.02696
Si 1.36699 -54.6409 -1.02761
O 0.716327 -58.4081 0.337712
O 3.12223 -58.2149 -1.02691
O 0.716613 -58.4082 3.06711
O 0.683296 -54.1225 0.351089
O 2.89434 -54.1202 -1.06929
O 0.628522 -54.1232 3.08041
O -9.40913 55.4818 1.7013
Si -9.41266 57.1281 1.70062
Si -8.91516 53.9164 1.69996
O -5.7892 55.986 1.70238
Si -6.23548 57.5706 1.70116
Si -5.8369 54.3452 1.70056
O -5.50033 58.1536 3.0658
O -7.88156 57.762 1.70097
O -5.50048 58.1535 0.336474
O -5.11014 53.8853 3.07792
O -7.31595 53.6997 1.66295
O -5.06057 53.8903 0.348494
O -13.9541 54.5033 -1.02882
Si -14.0936 56.1437 -1.0293
Si -13.3325 52.9842 -1.02993
O -10.3879 55.3041 -1.02811
Si -10.9636 56.8465 -1.02882
Si -10.2999 53.665 -1.02944
O -10.2789 57.4879 0.335875
O -12.6199 56.9017 -1.02894
O -10.2791 57.4878 3.06526
O -9.53687 53.2666 0.347513
O -11.7209 52.8999 -1.06594
O -9.48945 53.2752 3.07694
O -18.4023 53.1515 1.70017
Si -18.6766 54.7747 1.69955
Si -17.6575 51.6887 1.69877
O -14.9149 54.2453 1.70095
Si -15.6158 55.7349 1.70009
Si -14.6919 52.619 1.69949
O -14.9865 56.4307 3.06477
O -17.2709 55.6524 1.7
O -14.9867 56.4306 0.335332
O -13.8979 52.2853 3.07623
O -16.0444 51.7386 1.66347
O -13.8523 52.2976 0.346813
O -22.7239 51.4376 -1.02881
Si -23.1312 53.0328 -1.02976
Si -21.8613 50.0411 -1.03024
O -19.3386 52.8146 -1.0294
Si -20.1598 54.2414 -1.02988
Si -18.9822 51.2123 -1.03062
O -19.5901 54.9869 0.334679
O -21.8025 54.0231 -1.02964
O -19.5905 54.9868 3.06417
O -18.1627 50.9456 0.34579
O -20.2577 50.2234 -1.06504
O -18.1195 50.9611 3.07511
O 18.4349 -53.1355 1.70217
Si 18.7094 -54.7588 1.70152
Si 17.6901 -51.6728 1.701
O 14.9476 -54.2287 1.70211
Si 15.6487 -55.7182 1.7015
Si 14.7244 -52.6024 1.70069
O 15.0197 -56.4142 3.0661
O 17.3037 -55.6362 1.70163
O 15.0201 -56.4141 0.336745
O 13.9317 -52.2686 3.07807
O 16.077 -51.7222 1.66333
O 13.8836 -52.2815 0.348621
O 22.757 -51.4235 -1.02882
Si 23.1643 -53.0186 -1.02875
Si 21.8941 -50.0271 -1.02961
O 19.371 -52.7993 -1.02657
Si 20.1925 -54.226 -1.02789
Si 19.0147 -51.197 -1.02835
O 19.623 -54.9713 0.336833
O 21.8353 -54.0083 -1.02821
O 19.623 -54.9712 3.06625
O 18.1967 -50.9294 0.348688
O 20.2905 -50.2087 -1.06488
O 18.151 -50.946 3.0781
O 26.9226 -49.3594 1.69988
Si 27.4598 -50.9156 1.70038
Si 25.9475 -48.039 1.69954
O 23.6623 -51.0112 1.70164
Si 24.5985 -52.3653 1.70065
Si 23.175 -49.4437 1.69985
O 24.0922 -53.1552 3.06529
O 26.2175 -52.0122 1.70074
O 24.0925 -53.1549 0.335829
O 22.3365 -49.2451 3.07623
O 24.3645 -48.353 1.66489
O 22.2946 -49.2643 0.346865
O 30.9042 -46.9605 -1.02785
Si 31.5679 -48.4671 -1.02887
Si 29.824 -45.7245 -1.02939
O 27.7906 -48.8738 -1.02741
Si 28.8351 -50.1464 -1.02896
Si 27.1759 -47.3518 -1.02978
O 28.3958 -50.9753 0.335632
O 30.4197 -49.6619 -1.02886
O 28.3959 -50.9749 3.06503
O 26.3235 -47.2231 0.346381
O 28.272 -46.1672 -1.06453
O 26.2841 -47.2455 3.07583
O -34.646 44.2585 1.69919
Si -35.4315 45.7053 1.69962
Si -33.4675 43.1159 1.69885
O -31.6999 46.4215 1.70108
Si -32.8456 47.6037 1.69999
Si -30.962 44.9553 1.69937
O -32.4756 48.4657 3.06471
O -34.3852 46.9904 1.69999
O -32.4756 48.4656 0.335246
O -30.1012 44.8974 3.07523
O -31.957 43.6846 1.66603
O -30.0648 44.9221 0.345898
O -38.1798 41.2371 -1.02816
Si -39.082 42.6141 -1.02924
Si -36.9111 40.1956 -1.02964
O -35.4231 43.6368 -1.02858
Si -36.6624 44.7204 -1.02972
Si -34.5668 42.2364 -1.03045
O -36.3647 45.6103 0.33485
O -38.1459 43.9816 -1.02936
O -36.3649 45.6099 3.06422
O -33.7036 42.2503 0.344994
O -35.453 40.8875 -1.06234
O -33.6706 42.277 3.07442
O -41.4527 37.9349 1.70061
Si -42.4655 39.2328 1.7003
Si -40.1025 37.0014 1.69983
O -38.9029 40.553 1.70061
Si -40.2273 41.5309 1.70016
Si -37.9339 39.2281 1.69974
O -40.0041 42.4421 3.06485
O -41.6449 40.6726 1.70026
O -40.0043 42.4421 0.335466
O -37.0751 39.3133 3.07539
O -38.7062 37.8109 1.6669
O -37.0439 39.3427 0.345964
O -44.4432 34.3749 -1.02892
Si -45.5595 35.5849 -1.02943
Si -43.0207 33.5559 -1.03003
O -42.1176 37.1941 -1.02762
Si -43.5181 38.0594 -1.02906
Si -41.0427 35.9536 -1.02953
O -43.3706 38.9858 0.335721
O -44.8603 37.0874 -1.02919
O -43.3705 38.9857 3.06499
O -40.1937 36.1086 0.34611
O -41.6958 34.4777 -1.06223
O -40.165 36.1409 3.07559
O 41.4855 -37.9245 1.70163
Si 42.4976 -39.2228 1.70081
Si 40.1354 -36.9908 1.70051
O 38.9341 -40.5414 1.70008
Si 40.2584 -41.5195 1.70008
Si 37.9658 -39.2161 1.69922
O 40.0348 -42.4305 3.0647
O 41.6764 -40.6621 1.70055
O 40.0352 -42.4303 0.335252
O 37.1086 -39.299 3.07585
O 38.7389 -37.7996 1.66303
O 37.0744 -39.3311 0.346504
O 44.4748 -34.3649 -1.02886
Si 45.5908 -35.5752 -1.02918
Si 43.0524 -33.5457 -1.03002
O 42.1494 -37.1844 -1.02717
Si 43.5499 -38.0498 -1.02857
Si 41.075 -35.9435 -1.02887
O 43.4027 -38.976 0.336217
O 44.8919 -37.0777 -1.02883
O 43.4025 -38.9761 3.06558
O 40.2283 -36.096 0.348347
O 41.7278 -34.4676 -1.06643
O 40.1955 -36.1328 3.0778
O 47.1608 -30.5707 1.70171
Si 48.3729 -31.6847 1.70072
Si 45.6756 -29.8717 1.70028
O 45.0753 -33.572 1.70081
Si 46.5424 -34.3189 1.70024
Si 43.9021 -32.424 1.6994
O 46.472 -35.2545 3.06479
O 47.7999 -33.2396 1.70063
O 46.4723 -35.2541 0.335439
O 43.0705 -32.6468 3.07623
O 44.4313 -30.8994 1.66301
O 43.0417 -32.6848 0.34682
O 49.5252 -26.5677 -1.0275
Si 50.825 -27.5781 -1.02862
Si 47.9874 -25.9939 -1.02901
O 47.6945 -29.7312 -1.0277
Si 49.2182 -30.3545 -1.02867
Si 46.4306 -28.6839 -1.02914
O 49.225 -31.2925 0.336066
O 50.3823 -29.1751 -1.02863
O 49.225 -31.2924 3.0654
O 45.6205 -28.9737 0.348102
O 46.8324 -27.1209 -1.06703
O 45.594 -29.0154 3.07761
O -49.4917 26.5749 -1.02943
O -51.5174 22.39 1.70111
Si -52.8959 23.2899 1.69942
Si -49.9376 21.9442 1.69881
O -49.9539 25.6933 1.70169
Si -51.5236 26.1894 1.7
Si -48.6078 24.7539 1.69964
O -51.6082 27.1238 3.06465
O -52.5864 24.9179 1.69969
O -51.6079 27.1237 0.335359
O -47.8227 25.1132 3.07509
O -48.879 23.1627 1.66731
O -47.8034 25.1507 0.345613
O -53.1935 18.053 -1.02849
Si -54.6413 18.8366 -1.03011
Si -51.5824 17.7386 -1.03073
O -51.9061 21.4734 -1.03062
Si -53.5113 21.8388 -1.03009
Si -50.4874 20.6478 -1.03069
O -53.6717 22.763 0.3346
O -54.4664 20.4845 -1.02991
O -53.6722 22.7629 3.06399
O -49.7343 21.0709 0.344548
O -50.6273 19.0398 -1.06202
O -49.7179 21.1087 3.07397
O -54.5076 13.5929 1.70093
Si -56.0149 14.2548 1.69964
Si -52.8761 13.4121 1.6992
O -53.5055 17.1076 1.69857
Si -55.1354 17.3398 1.69922
Si -52.0238 16.4014 1.69858
O -55.3712 18.2478 3.06384
O -55.9759 15.9115 1.6996
O -55.3717 18.2475 0.334479
O -51.3081 16.8849 3.07382
O -52.0311 14.7873 1.66726
O -51.2948 16.9239 0.34442
Si -57.0066 9.57575 -1.02974
Si -53.8091 8.99404 -1.03034
O -54.7409 12.6252 -1.02973
Si -56.3843 12.7225 -1.0298
Si -53.2061 12.0433 -1.03027
O -56.6941 13.6079 0.334922
O -57.1043 11.23 -1.02966
O -56.6943 13.6078 3.06427
O -52.5325 12.5836 0.34512
O -53.0804 10.4342 -1.06225
O -52.5225 12.6243 3.07455
O 53.2234 -18.0451 -1.02873
O 54.5343 -13.5848 1.70292
Si 56.0419 -14.2462 1.70067
Si 52.9028 -13.4049 1.69998
O 53.5347 -17.1001 1.70161
Si 55.1646 -17.3315 1.70045
Si 52.0526 -16.3946 1.69982
O 55.4013 -18.2393 3.06507
O 56.0042 -15.9028 1.70059
O 55.4013 -18.239 0.335677
O 51.3381 -16.8751 3.07668
O 52.059 -14.7807 1.66353
O 51.3233 -16.9206 0.347269
O 55.4746 -9.0323 -1.02781
Si 57.0314 -9.5674 -1.02867
Si 53.8337 -8.98694 -1.02933
O 54.7667 -12.6177 -1.02957
Si 56.4102 -12.7141 -1.02884
Si 53.2317 -12.0362 -1.02956
O 56.7205 -13.5991 0.335895
O 57.1297 -11.2215 -1.02864
O 56.7211 -13.5991 3.06529
O 52.5594 -12.574 0.34737
O 53.1056 -10.4272 -1.06589
O 52.5478 -12.6202 3.07673
O 56.0384 -4.41778 1.70072
Si 57.6339 -4.82316 1.7004
Si 54.3994 -4.50749 1.69957
O 55.6271 -8.04914 1.7015
Si 57.2729 -8.01035 1.70073
Si 54.0495 -7.59585 1.70006
O 57.655 -8.8669 3.06542
O 57.8676 -6.46367 1.70072
O 57.655 -8.86685 0.336039
O 53.4233 -8.18668 3.077
O 53.7919 -6.00267 1.66322
O 53.4159 -8.23423 0.347633
Si 57.8439 -0.0452269 -1.02838
Si 54.5944 0.00314437 -1.02864
O 56.1097 -3.42569 -1.02834
Si 57.7467 -3.25137 -1.02899
Si 54.5002 -3.10354 -1.02984
O 58.1979 -4.07387 0.335611
O 58.2119 -1.66092 -1.0286
O 58.1979 -4.07342 3.06498
O 53.9246 -3.74366 0.347114
O 54.1123 -1.537 -1.06706
O 53.9212 -3.79181 3.07658
O 9.44326 -55.468 7.16143
Si 9.44688 -57.1143 7.16106
Si 8.94882 -53.9028 7.16071
O 5.82309 -55.9723 7.16095
Si 6.26959 -57.5569 7.16107
Si 5.87068 -54.3316 7.1604
O 5.53431 -58.1395 8.52579
O 7.91572 -57.7483 7.16116
O 5.53452 -58.1398 5.79637
O 5.14605 -53.8716 8.53887
O 7.34973 -53.6863 7.12003
O 5.09242 -53.8765 5.80941
O 13.9873 -54.4871 4.43161
Si 14.1269 -56.1274 4.43094
Si 13.3653 -52.968 4.43008
O 10.4216 -55.2899 4.43341
Si 10.9975 -56.8321 4.43169
Si 10.3333 -53.6508 4.43139
O 10.3133 -57.4739 5.7964
O 12.6538 -56.8863 4.43138
O 10.3133 -57.4737 8.5258
O 9.57244 -53.2523 5.80949
O 11.7537 -52.8849 4.3916
O 9.52051 -53.262 8.5389
O 34.6759 -44.2427 7.16025
Si 35.4611 -45.6896 7.15909
Si 33.4976 -43.0999 7.15861
O 31.7297 -46.4051 7.16018
Si 32.8752 -47.5875 7.15935
Si 30.9919 -44.9388 7.15881
O 32.5055 -48.4494 8.52408
O 34.4148 -46.9745 7.15927
O 32.5056 -48.4494 5.79464
O 30.1325 -44.8803 8.53543
O 31.9871 -43.6683 7.12309
O 30.0937 -44.9063 5.80599
O 38.2112 -41.2241 4.43046
Si 39.1128 -42.6016 4.42951
Si 36.9428 -40.1823 4.42869
O 35.4531 -43.6218 4.42993
Si 36.692 -44.7059 4.42963
Si 34.5971 -42.2213 4.42916
O 36.3941 -45.5953 5.79432
O 38.1759 -43.9683 4.42979
O 36.3945 -45.5952 8.52365
O 33.7357 -42.2334 5.80567
O 35.4843 -40.8732 4.39351
O 33.6993 -42.2624 8.53518
O 51.5497 -22.3828 7.16008
Si 52.9285 -23.2824 7.15923
Si 49.9698 -21.9376 7.15857
O 49.9872 -25.6868 7.16044
Si 51.5571 -26.1823 7.15958
Si 48.6411 -24.7474 7.15922
O 51.6416 -27.1166 8.52427
O 52.6195 -24.9105 7.1595
O 51.6416 -27.1166 5.79491
O 47.858 -25.1033 8.53655
O 48.912 -23.1564 7.12174
O 47.8349 -25.1472 5.80709
O 56.2204 0.227489 4.43167
Si 54.6715 -18.8283 4.42981
Si 51.6122 -17.7317 4.42919
O 51.9377 -21.4664 4.4303
Si 53.5431 -21.831 4.4298
Si 50.5187 -20.6412 4.42915
O 53.7042 -22.7553 5.79443
O 54.4973 -20.4763 4.42997
O 53.7043 -22.755 8.52386
O 49.7673 -21.0612 5.80613
O 50.658 -19.0333 4.39262
O 49.7485 -21.1055 8.53551
O 56.0189 4.87201 7.16012
Si 57.6594 4.73404 7.15956
Si 54.4169 4.51438 7.1589
O 56.2095 1.22204 7.16082
Si 57.8266 1.53062 7.15983
Si 54.5789 1.41056 7.15955
O 58.344 0.74831 8.52457
O 58.1591 3.15407 7.15981
O 58.3441 0.748282 5.79515
O 54.0582 0.726337 8.53716
O 54.0633 2.93979 7.12097
O 54.0587 0.675721 5.80775
O 55.4355 9.48429 4.43139
Si 57.0817 9.48214 4.43058
Si 53.8684 8.99563 4.43002
O 55.9264 5.86252 4.43098
Si 57.5125 6.30332 4.43016
Si 54.2858 5.91577 4.42949
O 58.0926 5.56592 5.79479
O 57.7101 7.9487 4.43052
O 58.0925 5.56632 8.52413
O 53.8231 5.1907 5.80688
O 53.6459 7.39725 4.39142
O 53.8278 5.14093 8.53637
O 54.4723 14.0323 7.16287
Si 56.1131 14.1662 7.16064
Si 52.951 13.4158 7.16024
O 55.2612 10.4634 7.16091
Si 56.8055 11.0339 7.16002
Si 53.6218 10.3812 7.15944
O 57.4445 10.3471 8.52468
O 56.8661 12.69 7.16026
O 57.4445 10.3473 5.79523
O 53.2206 9.62067 8.53695
O 52.8615 11.8046 7.12103
O 53.2295 9.57099 5.80759
O 53.1369 18.4852 4.43061
Si 54.761 18.7542 4.43048
Si 51.6718 17.745 4.42957
O 54.2178 14.9938 4.43122
Si 55.7097 15.6898 4.43114
Si 52.5908 14.7762 4.43074
O 56.403 15.0584 5.79601
O 55.6334 17.3453 4.43093
O 56.4034 15.0582 8.52538
O 52.2539 13.9856 5.80851
O 51.7155 16.1319 4.39217
O 52.2666 13.936 8.5379
O 51.4369 22.8118 7.1609
Si 53.0333 23.214 7.16015
Si 50.038 21.9531 7.15966
O 52.8037 19.422 7.16069
Si 54.2329 20.2391 7.15991
Si 51.2003 19.0707 7.159
O 54.9765 19.667 8.5245
O 54.0196 21.8824 7.16018
O 54.9763 19.6674 5.79505
O 50.93 18.254 8.53621
O 50.2155 20.3491 7.12118
O 50.9466 18.2077 5.80681
O 49.3854 26.9829 4.43246
Si 50.9431 27.5157 4.43092
Si 48.062 26.0118 4.43059
O 51.027 23.7176 4.43188
Si 52.3839 24.6499 4.43076
Si 49.4581 23.2351 4.43028
O 53.1723 24.1415 5.79538
O 52.0358 26.27 4.43084
O 53.1722 24.1416 8.52487
O 49.2563 22.3993 5.80777
O 48.3712 24.4279 4.39238
O 49.277 22.3536 8.53712
O 46.9979 30.9717 7.16045
Si 48.5063 31.6311 7.15968
Si 45.7593 29.8946 7.15856
O 48.9025 27.8523 7.16085
Si 50.1779 28.8934 7.16027
Si 47.3788 27.242 7.15996
O 51.0052 28.4516 8.52503
O 49.6978 30.4795 7.16016
O 51.0054 28.4517 5.7956
O 47.2465 26.3923 8.5374
O 46.1976 28.3414 7.12195
O 47.2706 26.3485 5.808
O 44.2881 34.7488 4.43266
Si 45.7369 35.5305 4.43152
Si 43.1425 33.5732 4.43103
O 46.4448 31.7982 4.42977
Si 47.63 32.9409 4.43025
Si 44.9767 31.0642 4.42911
O 48.4912 32.5686 5.79476
O 47.0199 34.4816 4.43106
O 48.4909 32.5693 8.52417
O 44.9158 30.2054 5.80594
O 43.7082 32.0618 4.39308
O 44.9421 30.1657 8.53536
O 41.2768 38.2902 7.16127
Si 42.6562 39.1889 7.16074
Si 40.2321 37.0242 7.15991
O 43.6687 35.5268 7.16204
Si 44.7554 36.7634 7.16096
Si 42.266 34.6742 7.16044
O 45.6442 36.4639 8.52571
O 44.0209 38.2489 7.16088
O 45.6443 36.4638 5.79634
O 42.2755 33.8142 8.53783
O 40.92 35.5644 7.1223
O 42.3065 33.7752 5.80842
O 37.9834 41.5715 4.4327
Si 39.2839 42.5809 4.43158
Si 37.0469 40.2235 4.43097