3168
 Atoms. Timestep: 15545
O 13.6632 63.6953 2.53302
Si 14.2657 65.2273 2.53308
Si 13.5421 62.0578 2.53298
O 17.2095 62.8356 2.53296
Si 17.3753 64.4734 2.53304
Si 16.5678 61.3243 2.53302
O 18.2669 64.7531 3.89731
O 15.9192 65.2575 2.53309
O 18.2668 64.7531 1.16873
O 17.1086 60.6248 3.89733
O 14.9522 61.2674 2.53279
O 17.1088 60.6248 1.16877
O 9.08456 64.4994 -0.195432
Si 9.57614 66.0705 -0.195413
Si 9.08066 62.8574 -0.195318
O 12.6834 63.8958 -0.195651
Si 12.7318 65.5413 -0.195511
Si 12.1512 62.3425 -0.19561
O 13.601 65.884 1.1688
O 11.2232 66.219 -0.195486
O 13.6011 65.884 3.89737
O 12.7408 61.6835 1.16875
O 10.5438 62.1701 -0.195571
O 12.741 61.6835 3.89732
O -14.0211 63.5662 2.53333
Si -14.1095 65.21 2.53305
Si -13.4514 62.0262 2.53299
O -10.4388 64.2584 2.53257
Si -10.9682 65.8171 2.53272
Si -10.3945 62.617 2.5326
O -10.2737 66.4421 3.89699
O -12.6183 65.9249 2.53285
O -10.2737 66.4421 1.16842
O -9.6109 62.206 3.8966
O -11.8402 61.8936 2.53338
O -9.61197 62.2058 1.16805
O -18.5204 62.3974 -0.195152
Si -18.7255 64.0308 -0.19518
Si -17.8426 60.9018 -0.195162
O -14.996 63.3417 -0.195762
Si -15.635 64.8588 -0.195521
Si -14.8352 61.7076 -0.195614
O -14.9866 65.5315 1.16872
O -17.2887 64.8495 -0.195303
O -14.9866 65.5315 3.8974
O -14.0248 61.3531 1.16859
O -16.2261 60.8836 -0.19523
O -14.0254 61.3529 3.89708
O -39.1604 51.9689 2.53353
Si -39.9225 53.4281 2.53357
Si -38.0036 50.8037 2.53353
O -36.1871 54.0837 2.53348
Si -37.3152 55.2826 2.53341
Si -35.4665 52.6083 2.53348
O -36.9421 56.1392 3.89766
O -38.8617 54.6968 2.53359
O -36.9423 56.1391 1.16903
O -34.5834 52.5586 3.89772
O -36.4824 51.3508 2.5338
O -34.5836 52.5585 1.16913
O -54.8695 34.9975 -0.196082
Si -43.6336 50.4406 -0.194925
Si -41.5328 47.9594 -0.194852
O -39.9544 51.3605 -0.195106
Si -41.165 52.476 -0.194984
Si -39.1306 49.9401 -0.195078
O -40.8539 53.3571 1.16923
O -42.6658 51.7816 -0.194797
O -40.8541 53.3569 3.8978
O -38.2463 49.9534 1.16915
O -40.0544 48.6135 -0.194806
O -38.2465 49.9532 3.89771
O -57.2338 30.995 2.53349
Si -58.5315 32.0079 2.53351
Si -55.6983 30.4134 2.53352
O -55.4022 34.1508 2.53374
Si -56.9254 34.775 2.53318
Si -54.1354 33.1062 2.53318
O -56.9405 35.7094 3.8973
O -58.0908 33.6018 2.53358
O -56.9406 35.7088 1.16866
O -53.3108 33.4265 3.89737
O -54.5398 31.5409 2.53318
O -53.3111 33.4264 1.16883
O -64.5027 9.0428 -0.195934
Si -60.6743 27.7527 -0.195168
Si -62.8608 9.03367 -0.195978
O -57.7049 30.1128 -0.195084
Si -59.2688 30.627 -0.195069
Si -56.3671 29.1608 -0.19506
O -59.3501 31.5577 1.16923
O -60.3479 29.3739 -0.195002
O -59.3501 31.5577 3.89778
O -55.5676 29.5385 1.16936
O -56.6593 27.5708 -0.195296
O -55.5674 29.5389 3.89792
O -64.9938 4.42053 2.53262
Si -66.5948 4.80364 2.53256
Si -63.3554 4.52848 2.53259
O -64.6363 8.05173 2.53286
Si -66.2812 7.98779 2.53262
Si -63.0502 7.62677 2.5326
O -66.6823 8.83153 3.89695
O -66.8549 6.43676 2.53254
O -66.6823 8.83148 1.16828
O -62.4328 8.25989 3.89687
O -62.7689 6.03489 2.53239
O -62.4329 8.25989 1.16834
O -65.1533 -0.225187 -0.195015
Si -66.7775 0.0426681 -0.195953
Si -63.5267 -0.000512627 -0.196114
O -65.0562 3.42238 -0.196032
Si -66.6924 3.24116 -0.196037
Si -63.4439 3.11167 -0.196013
O -67.1526 4.05412 1.16832
O -67.1537 1.65306 -0.196236
O -67.1526 4.05428 3.89689
O -62.8734 3.78701 1.16838
O -63.0495 1.54397 -0.196346
O -62.8733 3.78738 3.89697
O -64.9805 -4.87047 2.53305
Si -66.6197 -4.71928 2.53271
Si -63.3741 -4.53026 2.53253
O -65.1442 -1.22526 2.53141
Si -66.7633 -1.52288 2.53257
Si -63.5138 -1.42004 2.53238
O -67.2803 -0.744944 3.89699
O -67.11 -3.13986 2.53252
O -67.2806 -0.744637 1.16838
O -62.9931 -0.705388 3.89668
O -63.0085 -2.9556 2.53252
O -62.9928 -0.705376 1.16818
O -64.4771 -9.49163 -0.195351
Si -66.1229 -9.45808 -0.195705
Si -62.8991 -9.03756 -0.195569
O -64.9002 -5.86744 -0.196405
Si -66.4939 -6.27992 -0.195899
Si -63.2601 -5.94526 -0.196095
O -67.0652 -5.54062 1.16844
O -66.7245 -7.91758 -0.195869
O -67.0653 -5.54057 3.897
O -62.7915 -5.19535 1.1682
O -62.6466 -7.44087 -0.195919
O -62.7914 -5.1954 3.8968
O -63.6436 -14.065 2.53306
Si -65.2877 -14.1492 2.53304
Si -62.1023 -13.499 2.53298
O -64.3256 -10.4803 2.53299
Si -65.8856 -11.0058 2.53289
Si -62.6841 -10.4407 2.53301
O -66.5084 -10.3093 3.8972
O -65.9981 -12.6557 2.53296
O -66.5084 -10.3093 1.16855
O -62.2704 -9.65946 3.89742
O -61.9649 -11.8884 2.53269
O -62.2704 -9.659 1.16885
O -62.4843 -18.5665 -0.195161
Si -64.1181 -18.7682 -0.195483
Si -60.9873 -17.8919 -0.195513
O -63.4216 -15.0402 -0.195708
Si -64.9401 -15.6759 -0.195549
Si -61.7872 -14.8831 -0.195595
O -65.6112 -15.0258 1.16876
O -64.934 -17.3297 -0.195535
O -65.6113 -15.0258 3.89735
O -61.4306 -14.0741 1.16873
O -60.9659 -16.2755 -0.195554
O -61.4306 -14.0739 3.89732
O -61.0066 -22.974 2.53357
Si -62.6218 -23.2919 2.53348
Si -59.5616 -22.1942 2.53323
O -62.1929 -19.5236 2.53256
Si -63.6622 -20.2661 2.53308
Si -60.5739 -19.25 2.53305
O -64.378 -19.6656 3.89734
O -63.5382 -21.9153 2.53322
O -64.3781 -19.6657 1.16881
O -60.2762 -18.4174 3.89734
O -59.6554 -20.5804 2.53329
O -60.276 -18.4175 1.16871
O -59.2184 -27.2651 -0.194118
Si -60.8068 -27.6975 -0.195022
Si -57.8329 -26.3838 -0.194911
O -60.6479 -23.9078 -0.195436
Si -62.0603 -24.7535 -0.195114
Si -59.0525 -23.5193 -0.195381
O -62.817 -24.2058 1.16931
O -61.8189 -26.3896 -0.195229
O -62.8173 -24.2055 3.89787
O -58.8148 -22.6676 1.16891
O -58.0416 -24.7808 -0.195481
O -58.8147 -22.6676 3.8975
O -57.1274 -31.4168 2.53473
Si -58.6808 -31.9617 2.5338
Si -55.8085 -30.4387 2.53388
O -58.7939 -28.1705 2.53306
Si -60.1421 -29.1152 2.53353
Si -57.2304 -27.6691 2.53362
O -60.9362 -28.6228 3.89785
O -59.7841 -30.7297 2.53368
O -60.9364 -28.6228 1.16927
O -57.0541 -26.803 3.89814
O -56.1317 -28.8548 2.53297
O -57.0543 -26.8021 1.16958
O -54.7449 -35.4084 -0.196323
Si -56.2553 -36.0631 -0.195239
Si -53.4993 -34.3385 -0.195172
O -56.6389 -32.2897 -0.195659
Si -57.9162 -33.3282 -0.194856
Si -55.1153 -31.6775 -0.194797
O -58.7435 -32.8938 1.16944
O -57.4438 -34.9131 -0.194835
O -58.7437 -32.894 3.89807
O -55.0015 -30.8012 1.16984
O -53.9346 -32.7817 -0.195658
O -55.0019 -30.8 3.89845
O -52.0832 -39.2195 2.53288
Si -53.543 -39.9805 2.53331
Si -50.9174 -38.0633 2.53319
O -54.1956 -36.2442 2.53471
Si -55.3953 -37.3715 2.5334
Si -52.7197 -35.5248 2.53351
O -56.2517 -36.9975 3.89764
O -54.8107 -38.9185 2.53331
O -56.2513 -36.9975 1.169
O -52.6685 -34.6422 3.89792
O -51.4631 -36.5417 2.53289
O -52.6692 -34.6418 1.16936
O -49.1554 -42.8301 -0.195204
Si -50.5569 -43.6938 -0.195147
Si -48.0753 -41.5934 -0.195221
O -51.4754 -40.0138 -0.195112
Si -52.5913 -41.224 -0.195253
Si -50.0547 -39.1905 -0.195367
O -53.4722 -40.9122 1.169
O -51.8974 -42.7253 -0.195239
O -53.4721 -40.9121 3.89764
O -50.0671 -38.3066 1.16902
O -48.7286 -40.1148 -0.195547
O -50.0674 -38.3063 3.89758
O -45.9764 -46.222 2.5337
Si -47.3124 -47.1837 2.53376
Si -44.9876 -44.9111 2.53382
O -48.492 -43.5789 2.53345
Si -49.5185 -44.8659 2.53346
Si -47.1339 -42.656 2.53337
O -50.4195 -44.618 3.89772
O -48.7189 -46.3136 2.53366
O -50.4194 -44.6181 1.16913
O -47.2099 -41.7751 3.89771
O -45.7449 -43.483 2.53326
O -47.2101 -41.7749 1.16918
O -42.5628 -49.3773 -0.194265
Si -43.8266 -50.4323 -0.194502
Si -41.6702 -47.9992 -0.194375
O -45.2613 -46.9213 -0.195056
Si -46.193 -48.2785 -0.194807
Si -43.9727 -45.9037 -0.194757
O -47.1094 -48.0957 1.16945
O -45.2918 -49.6652 -0.194572
O -47.1093 -48.0958 3.89802
O -44.1112 -45.0306 1.16967
O -42.528 -46.629 -0.194899
O -44.1115 -45.0302 3.89819
O -38.9325 -52.2812 2.53482
Si -40.1176 -53.4238 2.53397
Si -38.1408 -50.8427 2.53407
O -41.7993 -50.0239 2.53428
Si -42.6315 -51.4442 2.53408
Si -40.5868 -48.9166 2.53422
O -43.5586 -51.3275 3.89838
O -41.6337 -52.7631 2.53403
O -43.5587 -51.3274 1.16982
O -40.7874 -48.0557 3.89869
O -39.0941 -49.5372 2.53388
O -40.7879 -48.0553 1.17007
O -35.1033 -54.9175 -0.194409
Si -36.2037 -56.1419 -0.194696
Si -34.4168 -53.4259 -0.194668
O -38.1248 -52.8716 -0.195556
Si -38.8532 -54.3478 -0.194694
Si -36.9947 -51.6804 -0.194586
O -39.7863 -54.2975 1.16961
O -37.7633 -55.5917 -0.194639
O -39.7863 -54.2978 3.89817
O -37.2567 -50.8359 1.16975
O -35.4614 -52.1922 -0.194549
O -37.2566 -50.8357 3.89835
O -31.095 -57.2719 2.53373
Si -32.105 -58.572 2.53388
Si -30.517 -55.7351 2.53385
O -34.2555 -55.4481 2.53376
Si -34.8764 -56.9727 2.53387
Si -33.2136 -54.1791 2.5339
O -35.8107 -56.9896 3.89816
O -33.7001 -58.1352 2.53393
O -35.8107 -56.9896 1.1696
O -33.5355 -53.3555 3.89816
O -31.6474 -54.5795 2.53408
O -33.5353 -53.3556 1.16955
O -26.9285 -59.3339 -0.195119
Si -27.843 -60.7027 -0.194919
Si -26.4617 -57.7596 -0.194978
O -30.2112 -57.7404 -0.194906
Si -30.7216 -59.3054 -0.194711
Si -29.2627 -56.4001 -0.194755
O -31.6523 -59.3893 1.16956
O -29.4652 -60.3809 -0.194725
O -31.6523 -59.3893 3.8982
O -29.6429 -55.6017 1.16953
O -27.6719 -56.6877 -0.194736
O -29.6426 -55.6018 3.89804
O -4.49604 -64.9536 2.5332
Si -4.87456 -66.5557 2.53338
Si -4.60888 -63.3155 2.53321
O -8.12846 -64.607 2.53313
Si -8.05982 -66.2518 2.53313
Si -7.70824 -63.0197 2.53316
O -8.90261 -66.6553 3.89738
O -6.50699 -66.8208 2.53324
O -8.9025 -66.6553 1.1688
O -8.34329 -62.4043 3.89744
O -6.11715 -62.7337 2.53342
O -8.34337 -62.4043 1.16889
O 0.150258 -65.1 -0.19513
Si -0.112864 -66.7251 -0.195026
Si -0.0789049 -63.4741 -0.195069
O -3.49751 -65.0131 -0.195261
Si -3.31162 -66.6488 -0.195177
Si -3.19149 -63.3999 -0.195371
O -4.12333 -67.1115 1.16915
O -1.72221 -67.1057 -0.194962
O -4.12332 -67.1114 3.89764
O -3.86922 -62.8313 1.16874
O -1.6248 -63.0012 -0.19466
O -3.86852 -62.8314 3.89735
O 22.8907 -60.8975 2.53402
Si 23.2117 -62.5121 2.53318
Si 22.1082 -59.454 2.53318
O 19.4428 -62.0913 2.53306
Si 20.1882 -63.559 2.53344
Si 19.1661 -60.4728 2.5332
O 19.5894 -64.2762 3.89777
O 21.837 -63.4314 2.53326
O 19.5892 -64.2763 1.16922
O 18.3327 -60.1769 3.89754
O 20.4945 -59.5515 2.53296
O 18.3326 -60.1769 1.16891
O 42.7412 -49.0301 -0.196193
Si 27.6136 -60.6891 -0.195245
Si 26.2954 -57.7172 -0.195312
O 23.824 -60.5367 -0.196152
Si 24.6719 -61.9477 -0.195468
Si 23.4328 -58.9419 -0.195485
O 24.1256 -62.7055 1.16883
O 26.3075 -61.7036 -0.195304
O 24.1257 -62.7057 3.89746
O 22.5805 -58.7062 1.16891
O 24.6927 -57.9288 -0.195614
O 22.5802 -58.7061 3.89751
O 46.1355 -45.8535 2.53375
Si 47.0962 -47.1903 2.53359
Si 44.8253 -44.8637 2.53363
O 43.4906 -48.367 2.53446
Si 44.7769 -49.3944 2.53361
Si 42.5683 -47.0085 2.53355
O 44.5286 -50.2952 3.89788
O 46.2251 -48.596 2.53351
O 44.5285 -50.295 1.16922
O 41.687 -47.0842 3.89772
O 43.3965 -45.6201 2.53384
O 41.6874 -47.0842 1.16913
O 59.2813 -26.8272 -0.194941
Si 50.3485 -43.7087 -0.195032
Si 47.9179 -41.5494 -0.194875
O 46.8358 -45.1391 -0.194732
Si 48.1919 -46.0722 -0.194957
Si 45.8193 -43.8496 -0.194975
O 48.0084 -46.9882 1.16937
O 49.5797 -45.1729 -0.19493
O 48.0083 -46.9883 3.89795
O 44.9457 -43.9877 1.16926
O 46.5466 -42.4057 -0.195
O 44.9457 -43.9876 3.89797
O 61.0511 -22.5286 2.53373
Si 62.4799 -23.3462 2.53371
Si 59.4484 -22.1715 2.53375
O 59.6879 -25.9131 2.53365
Si 61.2845 -26.3141 2.53368
Si 58.2851 -25.0596 2.53372
O 61.4323 -27.2366 3.898
O 62.2708 -24.9867 2.5337
O 61.4323 -27.2367 1.16936
O 57.5148 -25.4939 3.89808
O 58.4624 -23.4527 2.53357
O 57.5148 -25.4941 1.16946
O 65.1183 0.237896 -0.19488
Si 63.994 -18.8285 -0.194981
Si 63.4918 0.012825 -0.194814
O 61.3916 -21.5876 -0.194936
Si 63.0127 -21.8739 -0.194863
Si 59.9316 -20.8361 -0.19484
O 63.2259 -22.7836 1.1694
O 63.902 -20.4797 -0.194854
O 63.2259 -22.7836 3.898
O 59.1943 -21.3244 1.16949
O 59.9941 -19.2207 -0.194916
O 59.1942 -21.3245 3.89809
O 64.9441 4.88341 2.53394
Si 66.5834 4.73265 2.53373
Si 63.3379 4.54283 2.53362
O 65.109 1.23812 2.53397
Si 66.728 1.53608 2.53366
Si 63.4785 1.43256 2.53378
O 67.2454 0.757951 3.89794
O 67.0741 3.15328 2.53368
O 67.2453 0.757929 1.16938
O 62.9579 0.718263 3.89835
O 62.9728 2.96801 2.53295
O 62.9579 0.717196 1.16976
O 64.4382 9.50463 -0.194792
Si 66.0841 9.47138 -0.195104
Si 62.8604 9.05026 -0.195082
O 64.8632 5.88061 -0.195082
Si 66.4567 6.29339 -0.194871
Si 63.223 5.95799 -0.194981
O 67.0284 5.55427 1.16942
O 66.6865 7.93117 -0.194941
O 67.0284 5.55428 3.89803
O 62.7549 5.20812 1.1695
O 62.6088 7.45336 -0.195479
O 62.7549 5.20739 3.89808
O 63.6037 14.078 2.53353
Si 65.2478 14.1625 2.53368
Si 62.0624 13.512 2.53341
O 64.2863 10.4936 2.53325
Si 65.8463 11.0192 2.53346
Si 62.6448 10.4536 2.5335
O 66.4693 10.3226 3.89771
O 65.9586 12.6692 2.53353
O 66.4694 10.3227 1.16918
O 62.2314 9.67209 3.89791
O 61.9254 11.9013 2.53334
O 62.2314 9.67171 1.16928
O 62.445 18.5803 -0.195169
Si 64.0788 18.7819 -0.195075
Si 60.948 17.9056 -0.195063
O 63.3816 15.0537 -0.195176
Si 64.9001 15.6894 -0.194911
Si 61.7472 14.8964 -0.195177
O 65.5712 15.0393 1.16946
O 64.8943 17.3431 -0.195046
O 65.5712 15.0391 3.89797
O 61.3907 14.0872 1.1691
O 60.9263 16.2891 -0.195224
O 61.3907 14.0871 3.89775
O 60.9675 22.9879 2.5325
Si 62.5826 23.306 2.53352
Si 59.5225 22.208 2.53347
O 62.1539 19.5373 2.53366
Si 63.623 20.28 2.53352
Si 60.5348 19.2639 2.53352
O 64.3388 19.6795 3.89789
O 63.499 21.9292 2.5334
O 64.3388 19.6793 1.16924
O 60.2369 18.4315 3.89789
O 59.6164 20.5942 2.53329
O 60.237 18.4312 1.16926
O 59.1789 27.2792 -0.194992
Si 60.7673 27.7117 -0.195065
Si 57.7935 26.3979 -0.194962
O 60.6086 23.9219 -0.1939
Si 62.0209 24.7677 -0.194977
Si 59.0132 23.5334 -0.195051
O 62.7779 24.22 1.16934
O 61.7794 26.4038 -0.195268
O 62.7777 24.2196 3.89794
O 58.7755 22.6816 1.16924
O 58.0023 24.7948 -0.195276
O 58.7759 22.6814 3.89791
O 57.088 31.4314 2.53312
Si 58.6414 31.9764 2.53347
Si 55.7692 30.4532 2.53323
O 58.7544 28.1851 2.5339
Si 60.1027 29.1297 2.53355
Si 57.191 27.6835 2.53364
O 60.8968 28.6373 3.89788
O 59.7447 30.7443 2.53364
O 60.8968 28.6372 1.16924
O 57.0147 26.8171 3.89802
O 56.0923 28.8693 2.53328
O 57.0149 26.8167 1.16943
O 54.7052 35.4229 -0.196231
Si 56.2155 36.0778 -0.195233
Si 53.4597 34.3529 -0.195375
O 56.5998 32.3043 -0.195239
Si 57.8769 33.343 -0.195131
Si 55.0762 31.6921 -0.19534
O 58.7043 32.9086 1.16909
O 57.4042 34.9279 -0.195
O 58.7042 32.9088 3.89769
O 54.9624 30.8152 1.169
O 53.8954 32.7961 -0.195545
O 54.9626 30.8151 3.89758
O 52.0424 39.2338 2.53421
Si 53.502 39.995 2.5335
Si 50.8768 38.0773 2.53364
O 54.1554 36.2588 2.53444
Si 55.355 37.3862 2.5334
Si 52.6796 35.539 2.5333
O 56.2115 37.0123 3.89766
O 54.77 38.9332 2.5333
O 56.2112 37.0122 1.16908
O 52.6289 34.6561 3.89758
O 51.4229 36.5558 2.53288
O 52.6294 34.6561 1.16906
O 49.1138 42.8442 -0.194492
Si 50.5152 43.7079 -0.195226
Si 48.0339 41.6073 -0.195138
O 51.4343 40.0281 -0.195752
Si 52.5501 41.2384 -0.195142
Si 50.0137 39.2046 -0.194984
O 53.4309 40.9268 1.16925
O 51.8559 42.7395 -0.19525
O 53.4312 40.9268 3.89779
O 50.0263 38.3208 1.1696
O 48.6874 40.1288 -0.195629
O 50.0268 38.32 3.89814
O 45.9345 46.2357 2.53275
Si 47.2706 47.1975 2.53323
Si 44.9456 44.925 2.53351
O 48.4504 43.5929 2.53256
Si 49.4769 44.8799 2.5333
Si 47.0923 42.67 2.53339
O 50.3777 44.632 3.8976
O 48.6771 46.3275 2.53335
O 50.3779 44.6322 1.16903
O 47.1683 41.7894 3.89794
O 45.7032 43.4969 2.53286
O 47.1686 41.7886 1.16932
O 42.5211 49.3918 -0.194801
Si 43.785 50.4465 -0.195395
Si 41.6283 48.0137 -0.195411
O 45.2191 46.9353 -0.194349
Si 46.151 48.2923 -0.195293
Si 43.9305 45.9177 -0.195032
O 47.0675 48.1096 1.16892
O 45.2501 49.6792 -0.195281
O 47.0673 48.1094 3.89757
O 44.0691 45.0445 1.16944
O 42.4859 46.6433 -0.195585
O 44.0697 45.0442 3.89798
O 38.8911 52.2962 2.53302
Si 40.0765 53.4384 2.53306
Si 38.0992 50.8578 2.53294
O 41.7577 50.0384 2.53238
Si 42.5902 51.4586 2.53315
Si 40.5451 48.9314 2.53311
O 43.5173 51.3416 3.8974
O 41.5926 52.7776 2.53329
O 43.5172 51.3419 1.1688
O 40.7459 48.0703 3.89745
O 39.0524 49.5521 2.53338
O 40.7458 48.07 1.16888
O 35.0632 54.9336 -0.195215
Si 36.164 56.1577 -0.195235
Si 34.376 53.4424 -0.195344
O 38.0838 52.8867 -0.19595
Si 38.8128 54.3627 -0.195544
Si 36.9533 51.6959 -0.195665
O 39.7458 54.3122 1.16875
O 37.7234 55.607 -0.195378
O 39.7457 54.3123 3.89728
O 37.2154 50.8509 1.1684
O 35.4201 52.2083 -0.195165
O 37.2147 50.8514 3.89706
O 31.0567 57.2916 2.5325
Si 32.0673 58.5911 2.53322
Si 30.4779 55.755 2.53326
O 34.2155 55.4649 2.53335
Si 34.8372 56.9892 2.53335
Si 33.173 54.1964 2.53324
O 35.7714 57.0056 3.89766
O 33.6619 58.1527 2.53328
O 35.7715 57.0056 1.16911
O 33.4945 53.3725 3.8975
O 31.6072 54.5982 2.53338
O 33.4944 53.3726 1.16892
O 26.892 59.357 -0.196981
Si 27.8071 60.7255 -0.195473
Si 26.4247 57.783 -0.195386
O 30.1736 57.7611 -0.194493
Si 30.6846 59.326 -0.195319
Si 29.2244 56.4213 -0.195281
O 31.6154 59.4091 1.16897
O 29.429 60.4024 -0.19543
O 31.6153 59.4088 3.89754
O 29.6037 55.6224 1.16896
O 27.6339 56.7101 -0.195569
O 29.6038 55.6226 3.89761
O 22.5899 61.1174 2.53314
Si 23.4045 62.5479 2.53314
Si 22.2362 59.514 2.53324
O 25.9774 59.7617 2.53496
Si 26.3752 61.3591 2.53323
Si 25.1267 58.3573 2.53334
O 27.2977 61.509 3.89746
O 25.0455 62.3425 2.53313
O 27.2974 61.5085 1.16887
O 25.562 57.5878 3.89769
O 23.5195 58.5309 2.5329
O 25.5626 57.5881 1.16907
O 18.1727 62.5654 -0.19571
Si 18.8828 64.0506 -0.195539
Si 17.9345 60.9408 -0.195566
O 21.6483 61.4553 -0.195111
Si 21.9308 63.0771 -0.19543
Si 20.9002 59.9936 -0.195329
O 22.8402 63.2924 1.16875
O 20.5343 63.9629 -0.195355
O 22.84 63.2924 3.89746
O 21.3896 59.2576 1.16919
O 19.2847 60.0519 -0.195788
O 21.3903 59.2574 3.89766
O -22.6259 -61.0935 2.53323
Si -23.4402 -62.5241 2.53351
Si -22.2726 -59.4899 2.53353
O -26.0137 -59.7382 2.53367
Si -26.4109 -61.3357 2.53367
Si -25.1633 -58.3336 2.53359
O -27.3333 -61.4856 3.89786
O -25.0811 -62.3189 2.53382
O -27.3331 -61.4857 1.16934
O -25.5992 -57.5643 3.8979
O -23.556 -58.507 2.53334
O -25.5992 -57.5644 1.16928
O -18.2085 -62.5415 -0.195084
Si -18.9185 -64.0267 -0.195249
Si -17.9705 -60.9168 -0.195005
O -21.6843 -61.4316 -0.194732
Si -21.9665 -63.0534 -0.195079
Si -20.9364 -59.9697 -0.195049
O -22.8759 -63.2688 1.16913
O -20.5699 -63.9391 -0.195019
O -22.8756 -63.2688 3.89775
O -21.4261 -59.2336 1.16938
O -19.3208 -60.028 -0.19557
O -21.4266 -59.2335 3.89796
O -13.699 -63.6713 2.53309
Si -14.3015 -65.2033 2.53318
Si -13.5774 -62.0338 2.5333
O -17.245 -62.8118 2.53367
Si -17.4111 -64.4496 2.53332
Si -16.6033 -61.3004 2.53358
O -18.3026 -64.7292 3.89756
O -15.955 -65.2337 2.5333
O -18.3023 -64.7293 1.1689
O -17.144 -60.6011 3.89813
O -14.9877 -61.2435 2.5328
O -17.1449 -60.6008 1.16951
O -9.1203 -64.4764 -0.195572
Si -9.61215 -66.0474 -0.195468
Si -9.11595 -62.8345 -0.19544
O -12.7189 -63.872 -0.195743
Si -12.7676 -65.5175 -0.19544
Si -12.1864 -62.3188 -0.19531
O -13.6369 -65.86 1.16882
O -11.2593 -66.1955 -0.195415
O -13.6369 -65.8601 3.8975
O -12.7757 -61.6598 1.16918
O -10.579 -62.1467 -0.195699
O -12.7764 -61.6596 3.89775
O 4.46056 64.9748 2.533
Si 4.83851 66.5771 2.5331
Si 4.57358 63.3367 2.53317
O 8.09284 64.6294 2.53319
Si 8.0238 66.2742 2.53318
Si 7.67299 63.042 2.53327
O 8.86636 66.678 3.89745
O 6.47082 66.8427 2.53321
O 8.8664 66.678 1.16893
O 8.30813 62.4269 3.89762
O 6.08203 62.7554 2.53327
O 8.30828 62.4269 1.16898
O -0.18588 65.1193 -0.195651
Si 0.0768472 66.7444 -0.195614
Si 0.0437986 63.4935 -0.195615
O 3.46188 65.0339 -0.195382
Si 3.27555 66.6696 -0.195477
Si 3.15629 63.4206 -0.195424
O 4.08712 67.1325 1.16884
O 1.686 67.1259 -0.195526
O 4.08717 67.1324 3.8974
O 3.83388 62.8523 1.1688
O 1.58984 63.0212 -0.195249
O 3.83365 62.8523 3.89741
O -4.83078 64.9317 2.53278
Si -4.68461 66.5714 2.53286
Si -4.48563 63.3264 2.53283
O -1.18602 65.1069 2.53293
Si -1.48863 66.7251 2.53296
Si -1.37582 63.4759 2.53297
O -0.712111 67.2448 3.89721
O -3.10674 67.0666 2.53286
O -0.712285 67.2448 1.16862
O -0.659268 62.9574 3.89716
O -2.9098 62.9657 2.53333
O -0.659715 62.9574 1.16855
O -9.45029 64.4132 -0.19607
Si -9.42149 66.0592 -0.195869
Si -8.9916 62.8366 -0.195989
O -5.82744 64.848 -0.195564
Si -6.24475 66.4404 -0.195733
Si -5.90037 63.2077 -0.195728
O -5.5074 67.0142 1.16859
O -7.88305 66.6657 -0.195857
O -5.50729 67.0142 3.89719
O -5.14856 62.7416 1.16837
O -7.39403 62.5894 -0.195074
O -5.14935 62.7416 3.8969
O 4.79538 -64.9145 2.53395
Si 4.64874 -66.5541 2.53377
Si 4.45082 -63.309 2.53391
O 1.15069 -65.0882 2.53347
Si 1.45268 -66.7064 2.53356
Si 1.34087 -63.4572 2.53352
O 0.675921 -67.2258 3.89781
O 3.07064 -67.0487 2.53375
O 0.676036 -67.2258 1.16924
O 0.624302 -62.9384 3.89759
O 2.87509 -62.9477 2.53415
O 0.625015 -62.9384 1.16908
O 9.4155 -64.3978 -0.194808
Si 9.38607 -66.0437 -0.194939
Si 8.95726 -62.821 -0.194833
O 5.7924 -64.8312 -0.194705
Si 6.20902 -66.4238 -0.194848
Si 5.86585 -63.1909 -0.19469
O 5.47132 -66.9972 1.16945
O 7.8473 -66.6498 -0.194988
O 5.47133 -66.9973 3.89807
O 5.11437 -62.7245 1.16956
O 7.35978 -62.5732 -0.194718
O 5.11452 -62.7245 3.89817
O 13.9867 -63.5532 2.53327
Si 14.0749 -65.1971 2.53331
Si 13.4173 -62.0131 2.53323
O 10.4038 -64.2438 2.53391
Si 10.9331 -65.8026 2.53363
Si 10.3601 -62.6024 2.53375
O 10.2383 -66.4271 3.89799
O 12.5833 -65.9112 2.53336
O 10.2381 -66.4271 1.16937
O 9.57742 -62.1907 3.89801
O 11.8062 -61.8797 2.53358
O 9.57745 -62.1907 1.16948
O 18.4863 -62.3848 -0.195328
Si 18.6914 -64.0181 -0.195143
Si 17.8085 -60.8892 -0.195359
O 14.9617 -63.3291 -0.195337
Si 15.6007 -64.8462 -0.195293
Si 14.801 -61.695 -0.195382
O 14.9522 -65.5187 1.16906
O 17.2545 -64.8368 -0.195323
O 14.9522 -65.5187 3.89756
O 13.9909 -61.3402 1.16888
O 16.192 -60.8711 -0.195268
O 13.9911 -61.3401 3.89746
O -22.9254 60.9121 2.53237
Si -23.2462 62.5268 2.53351
Si -22.1429 59.4686 2.53348
O -19.4768 62.1045 2.53368
Si -20.2223 63.5722 2.53344
Si -19.2003 60.4859 2.53344
O -19.6234 64.2892 3.89777
O -21.8711 63.4455 2.53353
O -19.6234 64.2892 1.16909
O -18.3669 60.1897 3.89767
O -20.5292 59.5653 2.5337
O -18.367 60.1897 1.16912
O -27.2136 59.1168 -0.195036
Si -27.6482 60.7046 -0.194977
Si -26.3302 57.7327 -0.195014
O -23.8585 60.5519 -0.193934
Si -24.7064 61.9629 -0.194996
Si -23.4676 58.9571 -0.195018
O -24.1602 62.7208 1.1693
O -26.3421 61.7189 -0.19521
O -24.1599 62.7206 3.89791
O -22.6151 58.7208 1.16915
O -24.7275 57.9441 -0.194826
O -22.6155 58.721 3.89775
O -31.3627 57.0206 2.53353
Si -31.9094 58.5733 2.53349
Si -30.383 55.7028 2.53361
O -28.1186 58.691 2.53382
Si -29.0648 60.0381 2.53363
Si -27.615 57.1282 2.53359
O -28.5738 60.8329 3.89798
O -30.6789 59.6782 2.53345
O -28.5735 60.8329 1.16939
O -26.748 56.9534 3.89784
O -28.7995 56.0279 2.53365
O -26.7482 56.9533 1.16926
O -35.3516 54.6342 -0.19535
Si -36.0079 56.1439 -0.19521
Si -34.2808 53.3894 -0.195103
O -32.2351 56.5312 -0.195106
Si -33.2749 57.8075 -0.195096
Si -31.6213 55.0083 -0.194973
O -32.8416 58.6353 1.16918
O -34.8592 57.3336 -0.195055
O -32.8416 58.6353 3.89781
O -30.7442 54.8956 1.16929
O -32.7243 53.8265 -0.194957
O -30.7443 54.8956 3.89787
O 27.1786 -59.1015 -0.195588
O 31.3287 -57.006 2.5337
Si 31.8753 -58.5588 2.53348
Si 30.3492 -55.6881 2.53361
O 28.0841 -58.6756 2.53369
Si 29.0302 -60.0227 2.53338
Si 27.5806 -57.1127 2.5333
O 28.5391 -60.8175 3.89767
O 30.6444 -59.6633 2.53335
O 28.539 -60.8174 1.16907
O 26.7137 -56.9378 3.89764
O 28.7655 -56.0129 2.53332
O 26.7135 -56.9379 1.16905
O 35.3188 -54.6203 -0.196363
Si 35.9744 -56.1304 -0.1951
Si 34.2482 -53.3753 -0.195267
O 32.2015 -56.5167 -0.194646
Si 33.2409 -57.7933 -0.1951
Si 31.5881 -54.9936 -0.194958
O 32.8076 -58.6209 1.16927
O 34.8253 -57.3197 -0.195265
O 32.8074 -58.621 3.89785
O 30.7109 -54.8809 1.16934
O 32.6916 -53.8121 -0.194944
O 30.7108 -54.881 3.89799
O 39.1293 -51.9573 2.53239
Si 39.8907 -53.4169 2.53349
Si 37.973 -50.7915 2.53334
O 36.1547 -54.0703 2.53468
Si 37.2822 -55.2698 2.53358
Si 35.4346 -52.5946 2.53341
O 36.9089 -56.1263 3.89789
O 38.829 -54.6849 2.53334
O 36.9084 -56.1261 1.16931
O 34.5514 -52.5444 3.8976
O 36.4514 -51.3377 2.53351
O 34.5518 -52.5445 1.16899
Si 43.6043 -50.4319 -0.195061
Si 41.5048 -47.9496 -0.195128
O 39.924 -51.3492 -0.194038
Si 41.134 -52.4654 -0.194997
Si 39.101 -49.9284 -0.195138
O 40.8225 -53.3463 1.16929
O 42.6354 -51.7721 -0.195072
O 40.8222 -53.3462 3.8979
O 38.2164 -49.9412 1.16903
O 40.0259 -48.6025 -0.194948
O 38.2169 -49.9413 3.8976
O -42.7697 49.0393 -0.194819
O -46.1613 45.8603 2.53486
Si -47.1227 47.1966 2.5336
Si -44.8507 44.8711 2.53344
O -43.5183 48.3758 2.53365
Si -44.8052 49.4024 2.53365
Si -42.5955 47.0176 2.53373
O -44.5577 50.3033 3.89792
O -46.2528 48.6029 2.53353
O -44.5577 50.3033 1.16939
O -41.7144 47.0939 3.89801
O -43.4225 45.6285 2.53376
O -41.7145 47.0939 1.16941
O -49.3188 42.4485 -0.194653
Si -50.3727 43.7131 -0.195246
Si -47.9412 41.5549 -0.194915
O -46.8611 45.1451 -0.196848
Si -48.2176 46.0778 -0.195112
Si -45.8439 43.8561 -0.195281
O -48.0346 46.9938 1.16924
O -49.6048 45.1777 -0.195167
O -48.0349 46.9942 3.89785
O -44.9705 43.9951 1.16902
O -46.5704 42.4119 -0.194947
O -44.9705 43.9945 3.8975
O -52.2265 38.8216 2.53384
Si -53.3675 40.0082 2.53341
Si -50.7889 38.0281 2.53342
O -49.9658 41.6857 2.53332
Si -51.3852 42.5195 2.53333
Si -48.8598 40.4721 2.53364
O -51.2678 43.4464 3.89756
O -52.7052 41.5235 2.53348
O -51.268 43.4463 1.16903
O -47.9984 40.6724 3.89797
O -49.4822 38.98 2.5335
O -47.9983 40.6724 1.16938
Si -56.092 36.1 -0.19548
Si -53.3792 34.3082 -0.195437
O -52.818 38.015 -0.195912
Si -54.293 38.7458 -0.195207
Si -51.6286 36.8829 -0.195236
O -54.2415 39.6786 1.16907
O -55.539 37.6585 -0.195106
O -54.2417 39.6787 3.89767
O -50.7836 37.1438 1.1691
O -52.1434 35.3505 -0.195256
O -50.7834 37.1437 3.89773
O 49.2951 -42.4436 -0.195883
O 52.2039 -38.8171 2.53346
Si 53.3447 -40.0039 2.53351
Si 50.7665 -38.0234 2.53356
O 49.9425 -41.6811 2.5347
Si 51.3618 -42.5151 2.53365
Si 48.837 -40.467 2.53377
O 51.244 -43.4422 3.89785
O 52.682 -41.5191 2.53357
O 51.2438 -43.4419 1.16931
O 47.9755 -40.6667 3.89811
O 49.4597 -38.9751 2.53336
O 47.9756 -40.667 1.16948
O 54.8469 -34.9926 -0.195602
Si 56.0693 -36.0952 -0.195285
Si 53.3565 -34.3034 -0.195235
O 52.7956 -38.0104 -0.194918
Si 54.2705 -38.7414 -0.195071
Si 51.6062 -36.8784 -0.194995
O 54.2189 -39.6742 1.16925
O 55.5164 -37.6538 -0.195061
O 54.219 -39.6741 3.89773
O 50.7613 -37.1388 1.16941
O 52.1209 -35.3459 -0.195222
O 50.761 -37.1393 3.898
O 57.2102 -30.9895 2.53329
Si 58.5082 -32.0019 2.53345
Si 55.6746 -30.4081 2.53332
O 55.3794 -34.1458 2.53334
Si 56.9029 -34.7697 2.53331
Si 54.1124 -33.1013 2.53341
O 56.9178 -35.7041 3.8975
O 58.068 -33.596 2.53354
O 56.9179 -35.7039 1.16897
O 53.288 -33.4217 3.89766
O 54.5165 -31.536 2.53335
O 53.2882 -33.4217 1.16909
Si 60.6481 -27.7447 -0.194945
Si 57.7081 -26.357 -0.194878
O 57.6807 -30.1064 -0.195413
Si 59.2447 -30.6202 -0.195138
Si 56.3424 -29.1551 -0.19525
O 59.3265 -31.5511 1.16907
O 60.3229 -29.3662 -0.195036
O 59.3266 -31.5509 3.89771
O 55.5432 -29.5336 1.16905
O 56.6335 -27.5649 -0.195133
O 55.5432 -29.5335 3.89759
O -59.3078 26.8348 -0.195322
Si -57.7348 26.3639 -0.195049
O -61.0805 22.5374 2.53342
Si -62.5089 23.3557 2.53341
Si -59.4779 22.1798 2.53348
O -59.7152 25.9211 2.53338
Si -61.3116 26.3228 2.5334
Si -58.3128 25.0669 2.53355
O -61.4588 27.2454 3.89769
O -62.2988 24.996 2.53329
O -61.4589 27.2453 1.16905
O -57.5423 25.5006 3.89795
O -58.4911 23.4602 2.53316
O -57.5421 25.5011 1.16942
O -62.541 18.1245 -0.195415
Si -64.0241 18.8388 -0.195315
Si -60.917 17.8819 -0.195351
O -61.4214 21.597 -0.195155
Si -63.0424 21.8839 -0.195181
Si -59.9617 20.845 -0.195095
O -63.2553 22.7935 1.16918
O -63.9321 20.4899 -0.195351
O -63.2552 22.7937 3.89775
O -59.2241 21.3325 1.16928
O -60.0244 19.2297 -0.195439
O -59.224 21.3329 3.89787
O -63.6836 13.6186 2.53287
Si -65.2139 14.2255 2.53293
Si -62.0465 13.4924 2.53289
O -62.8138 17.1622 2.53339
Si -64.4512 17.3328 2.53328
Si -61.3043 16.516 2.53325
O -64.7284 18.2249 3.89759
O -65.2394 15.879 2.53318
O -64.7284 18.225 1.169
O -60.6034 17.055 3.89758
O -61.2521 14.9003 2.53304
O -60.6033 17.0553 1.16902
Si -66.0723 9.5392 -0.195952
O -63.8873 12.6394 -0.195609
Si -65.5326 12.6929 -0.195671
Si -62.3356 12.1024 -0.195704
O -65.8726 13.5632 1.16855
O -66.2154 11.1867 -0.19563
O -65.8726 13.5629 3.89714
O -61.6747 12.69 1.16858
O -62.1685 10.4945 -0.195757
O -61.6747 12.6899 3.89714
O 62.5105 -18.1147 -0.194909
Si 60.8865 -17.8726 -0.19498
O 63.6523 -13.6079 2.53372
Si 65.1827 -14.2144 2.53355
Si 62.0151 -13.4823 2.53353
O 62.7834 -17.152 2.53373
Si 64.4208 -17.322 2.53362
Si 61.2737 -16.5063 2.53361
O 64.6981 -18.2144 3.89788
O 65.2086 -15.8679 2.53366
O 64.6981 -18.2142 1.16928
O 60.5728 -17.0456 3.89794
O 61.2211 -14.8905 2.53341
O 60.5728 -17.0458 1.16936
O 64.47 -9.03149 -0.194921
Si 66.0397 -9.52735 -0.194981
Si 62.828 -9.02279 -0.195001
O 63.8557 -12.6284 -0.195246
Si 65.501 -12.6814 -0.195052
Si 62.3038 -12.0919 -0.195068
O 65.8412 -13.5516 1.16922
O 66.1833 -11.1749 -0.194941
O 65.8413 -13.5515 3.89778
O 61.6433 -12.6797 1.16932
O 62.1363 -10.484 -0.195604
O 61.6432 -12.6801 3.89791
O 64.9599 -4.40844 2.53397
Si 66.561 -4.79113 2.53378
Si 63.3215 -4.51678 2.53378
O 64.6033 -8.03982 2.53347
Si 66.2483 -7.97553 2.53359
Si 63.0171 -7.61537 2.5336
O 66.6494 -8.81936 3.8979
O 66.8216 -6.42428 2.53351
O 66.6495 -8.81936 1.16929
O 62.4001 -8.24848 3.8981
O 62.7355 -6.02347 2.53298
O 62.3999 -8.2493 1.16953
Si 66.7426 -0.0296549 -0.194958
O 65.022 -3.41003 -0.194754
Si 66.6581 -3.22834 -0.194802
Si 63.4096 -3.09958 -0.194805
O 67.1186 -4.04113 1.16963
O 67.119 -1.64006 -0.195037
O 67.1186 -4.04155 3.89817
O 62.8393 -3.7749 1.16978
O 63.015 -1.53185 -0.195579
O 62.8392 -3.77598 3.89833
O 13.6632 63.6953 7.9902
Si 14.2657 65.2273 7.99025
Si 13.5421 62.0578 7.99015
O 17.2095 62.8356 7.99013
Si 17.3753 64.4734 7.99022
Si 16.5677 61.3243 7.9902
O 18.2669 64.7531 9.35449
O 15.9192 65.2575 7.99026
O 18.2668 64.7531 6.6259
O 17.1086 60.6248 9.35451
O 14.9522 61.2674 7.98996
O 17.1088 60.6248 6.62595
O 9.08455 64.4994 5.26174
Si 9.57614 66.0705 5.26177
Si 9.08066 62.8574 5.26184
O 12.6834 63.8958 5.26152
Si 12.7318 65.5413 5.26166
Si 12.1512 62.3425 5.26158
O 13.601 65.884 6.62597
O 11.2233 66.219 5.26169
O 13.6011 65.884 9.35454
O 12.7408 61.6835 6.62593
O 10.5438 62.1701 5.2616
O 12.741 61.6835 9.35449
O -14.0211 63.5662 7.99051
Si -14.1095 65.21 7.99024
Si -13.4514 62.0262 7.99016