2640
 Atoms. Timestep: 9407
O 32.0023 4.86459 3.29385
Si 33.6459 4.77489 3.28621
Si 30.4323 4.39412 3.28205
O 32.3384 1.15554 3.29237
Si 33.9386 1.54097 3.28457
Si 30.7091 1.33444 3.28023
O 34.4607 0.747469 4.65362
O 34.192 3.19411 3.28474
O 34.4606 0.747224 1.91576
O 30.1988 0.830252 4.72832
O 30.1981 2.83071 3.01527
O 30.2053 0.497241 1.99076
O 30.998 9.37628 0.558241
Si 32.6376 9.52104 0.550466
Si 29.511 8.68691 0.546312
O 31.8582 5.75222 0.556487
Si 33.3874 6.36136 0.548658
Si 30.2201 5.69802 0.544352
O 34.0168 5.64989 1.91772
O 33.4029 8.03385 0.548891
O 34.0167 5.64959 26.5571
O 29.7864 5.12744 1.99271
O 29.502 7.1064 0.278355
O 29.8402 4.79748 26.6324
O 29.3601 13.698 3.29822
Si 30.9623 14.0751 3.29019
Si 27.9869 12.8033 3.28604
O 30.729 10.2335 3.29624
Si 32.1556 11.0547 3.28837
Si 29.1154 9.94657 3.28406
O 32.88 10.4401 4.65745
O 31.9321 12.7123 3.28857
O 32.88 10.4397 1.91958
O 28.7671 9.32104 4.73272
O 28.2042 11.238 3.01691
O 28.8678 9.00083 1.99512
O 27.1202 17.7404 0.562609
Si 28.652 18.3427 0.554348
Si 25.8894 16.6582 0.550332
O 28.9715 14.5072 0.560456
Si 30.2658 15.5242 0.552628
Si 27.4154 13.9928 0.54834
O 31.0707 15.0195 1.92172
O 29.807 17.1327 0.552715
O 31.0708 15.019 26.5611
O 27.1599 13.3248 1.99728
O 26.3291 15.1405 0.280294
O 27.3058 13.0211 26.6369
O 24.323 21.419 3.30237
Si 25.7527 22.2346 3.29372
Si 23.2601 20.1715 3.28981
O 26.6196 18.485 3.29998
Si 27.7547 19.677 3.29221
Si 25.1531 17.753 3.28807
O 28.6237 19.2929 4.66129
O 27.0695 21.203 3.29214
O 28.624 19.2925 1.92355
O 24.996 17.0558 4.7372
O 23.9133 18.7328 3.01971
O 25.1843 16.7756 1.99946
O 21.0266 24.6576 0.566236
Si 22.3247 25.6697 0.557298
Si 20.1532 23.2708 0.553515
O 23.7202 22.0839 0.563693
Si 24.673 23.4261 0.556092
Si 22.374 21.1491 0.552091
O 25.5882 23.1708 1.92518
O 23.7759 24.838 0.555866
O 25.5886 23.1704 26.5648
O 22.3188 20.4366 2.00125
O 21.0061 21.9406 0.284012
O 22.5452 20.1864 26.6406
O 17.2995 27.3894 3.30555
Si 18.4395 28.5768 3.29599
Si 16.6329 25.8921 3.2923
O 20.334 25.2291 3.30237
Si 21.0852 26.6936 3.29506
Si 19.1355 24.1111 3.29122
O 22.0275 26.5724 4.66412
O 19.995 27.9621 3.29461
O 22.028 26.5722 1.92655
O 19.1837 23.3979 4.74032
O 17.6677 24.6976 3.024
O 19.443 23.1831 2.0023
O 13.2204 29.5617 0.568099
Si 14.1799 30.8991 0.558158
Si 12.7734 27.9849 0.555524
O 16.5317 27.856 0.56528
Si 17.0667 29.4126 0.558194
Si 15.5048 26.5785 0.554538
O 18.0163 29.4276 1.92738
O 15.807 30.5127 0.557118
O 18.0172 29.4274 26.5671
O 15.6555 25.879 2.00334
O 13.9679 26.9494 0.28899
O 15.9413 25.7042 26.6424
O 8.87486 31.1336 3.30626
Si 9.6352 32.5935 3.29433
Si 8.65389 29.5096 3.29515
O 12.3923 29.9145 3.30366
Si 12.7026 31.5309 3.29569
Si 11.5575 28.5038 3.29327
O 13.6402 31.681 4.66497
O 11.3004 32.4418 3.29336
O 13.6415 31.6808 1.92764
O 11.8086 27.8319 4.74139
O 9.98248 28.6513 3.03217
O 12.1132 27.701 2.0031
O 4.35325 32.0807 0.557344
Si 4.89942 33.6338 0.548728
Si 4.3568 30.4414 0.545889
O 7.99994 31.367 0.565999
Si 8.08403 33.0109 0.556073
Si 7.37426 29.8518 0.557583
O 8.99031 33.2914 1.92585
O 6.56904 33.7176 0.550385
O 8.99307 33.2912 26.566
O 7.72199 29.2212 2.00449
O 5.79297 29.7699 0.303812
O 8.03665 29.1361 26.6434
O -0.26981 32.4101 3.2279
Si 0.0648808 34.0123 3.29182
Si -0.0228714 30.8048 3.38271
O 3.46032 32.194 3.29549
Si 3.30655 33.8328 3.28567
Si 3.04195 30.6094 3.28384
O 4.16395 34.2364 4.65615
O 1.70779 34.3222 3.27734
O 4.16693 34.2362 1.91796
O 3.48709 30.0243 4.7229
O 1.47798 30.332 3.06699
O 3.7767 29.9862 1.98426
O -4.25522 32.1566 0.198062
Si -4.75027 33.7212 0.304069
Si -4.34663 30.5261 0.0739547
O -1.64147 32.36 0.759608
Si -1.57407 34.0044 0.561426
Si -1.38403 30.7315 0.659245
O -0.768067 34.5132 1.93253
O -3.20719 34.378 0.439287
O -0.709922 34.4617 26.5945
O -0.856166 30.2432 2.11031
O -2.8279 30.0787 0.374541
O -0.448629 30.3412 -0.602321
O -8.89802 31.1333 3.50226
Si -9.50289 32.6638 3.30401
Si -8.60935 29.5101 3.40282
O -6.36647 31.8005 2.92675
Si -6.41085 33.4405 3.0414
Si -5.74508 30.2896 2.81121
O -5.59284 34.0174 4.37315
O -8.08375 33.5537 3.17986
O -5.71224 33.9992 1.6357
O -4.71935 30.0539 4.04239
O -7.03157 29.3679 3.11534
O -5.23616 29.9636 1.30526
O -13.6642 29.3011 0.562404
Si -14.0559 30.8998 0.552616
Si -12.7509 27.9402 0.550141
O -10.2136 30.7281 0.492894
Si -11.0533 32.1328 0.558942
Si -9.9197 29.1309 0.650764
O -10.4697 32.8111 1.96021
O -12.7068 31.8871 0.54424
O -10.4306 32.8798 26.5773
O -9.36621 28.8344 2.14194
O -11.1817 28.1904 0.336114
O -8.94721 28.8753 -0.621383
O -17.6842 27.0361 3.31041
Si -18.3007 28.5623 3.30003
Si -16.5997 25.8066 3.30157
O -14.4726 28.9 3.29819
Si -15.495 30.1905 3.29115
Si -13.9395 27.3497 3.28763
O -15.0003 30.9994 4.66016
O -17.1002 29.7251 3.29368
O -14.998 31.0006 1.92308
O -13.2396 27.1111 4.72509
O -15.077 26.2439 3.05082
O -12.9826 27.2395 1.98801
O -21.3673 24.2351 0.572655
Si -22.1862 25.6629 0.565006
Si -20.1206 23.1708 0.562373
O -18.4376 26.5291 0.574157
Si -19.6307 27.6631 0.562896
Si -17.7 25.0654 0.563676
O -19.2511 28.5315 1.93276
O -21.1562 26.9796 0.562349
O -19.2485 28.5328 26.5717
O -16.9921 24.9149 2.00926
O -18.6772 23.8205 0.304837
O -16.7257 25.0952 26.6493
O -24.6203 20.9496 3.31107
Si -25.6303 22.2492 3.30414
Si -23.2362 20.0714 3.30061
O -22.0387 23.6315 3.31248
Si -23.3787 24.5875 3.30301
Si -21.1045 22.2847 3.30008
O -23.1227 25.5011 4.67241
O -24.7939 23.697 3.30263
O -23.1216 25.5015 1.93426
O -20.3852 22.2321 4.74662
O -21.8996 20.9172 3.03809
O -20.143 22.4514 2.00951
O -27.3764 17.2385 0.574291
Si -28.5595 18.3828 0.567234
Si -25.8818 16.5655 0.563428
O -25.1986 20.2594 0.575944
Si -26.6603 21.0163 0.566603
Si -24.0846 19.0572 0.562923
O -26.5348 21.9573 1.9359
O -27.9355 19.9343 0.566065
O -26.5341 21.9576 26.575
O -23.3674 19.1038 2.01049
O -24.6797 17.5924 0.297479
O -23.1553 19.3587 26.6506
O -29.5751 13.1729 3.3126
Si -30.9088 14.1374 3.30524
Si -27.9997 12.7204 3.30136
O -27.8497 16.4746 3.31431
Si -29.4044 17.0155 3.30508
Si -26.5766 15.4424 3.3012
O -29.4135 17.9651 4.67437
O -30.5121 15.7623 3.30427
O -29.4129 17.9655 1.9363
O -25.8749 15.5883 4.74955
O -26.9578 13.9087 3.033
O -25.6993 15.8738 2.01234
O -31.1666 8.83396 0.574964
Si -32.6246 9.59777 0.567184
Si -29.5427 8.61243 0.56322
O -29.9332 12.3501 0.576571
Si -31.5493 12.6626 0.567566
Si -28.5258 11.5103 0.563666
O -31.6942 13.6015 1.93686
O -32.4654 11.263 0.566467
O -31.6937 13.602 26.5761
O -27.8532 11.7537 2.01263
O -28.6833 9.93831 0.293558
O -27.7192 12.0636 26.6525
O -32.1153 4.31134 3.31201
Si -33.6679 4.85779 3.30392
Si -30.4764 4.32557 3.29986
O -31.4018 7.96877 3.31351
Si -33.046 8.04586 3.30488
Si -29.8884 7.33973 3.30095
O -33.3246 8.95422 4.67414
O -33.7505 6.5286 3.30353
O -33.3243 8.95486 1.93632
O -29.2585 7.67653 4.75027
O -29.8175 5.76161 3.03
O -29.1699 8.00364 2.0127
O -32.4014 -0.300635 0.572967
Si -34.0165 0.0169697 0.56466
Si -30.7816 -0.0513213 0.560536
O -32.2226 3.42117 0.57443
Si -33.8608 3.26129 0.56609
Si -30.6345 3.01627 0.56212
O -34.2675 4.12008 1.93529
O -34.3392 1.65835 0.564555
O -34.2675 4.12069 26.5749
O -30.06 3.44044 2.01154
O -30.3364 1.46482 0.291452
O -30.0194 3.77684 26.651
O -32.0215 -4.90606 3.30874
Si -33.6655 -4.82329 3.30048
Si -30.454 -4.42757 3.29625
O -32.3791 -1.19763 3.31018
Si -33.9775 -1.59052 3.30222
Si -30.7492 -1.37031 3.29823
O -34.5035 -0.799192 4.67136
O -34.2207 -3.24543 3.30058
O -34.5037 -0.798681 1.93381
O -30.242 -0.867098 4.74752
O -30.2307 -2.86294 3.02859
O -30.2501 -0.529418 2.00959
O -30.9874 -9.4101 0.56879
Si -32.6263 -9.56294 0.560705
Si -29.5039 -8.71335 0.556348
O -31.8706 -5.79154 0.570214
Si -33.3966 -6.40828 0.562557
Si -30.2327 -5.72917 0.558484
O -34.0306 -5.70056 1.93166
O -33.4013 -8.08079 0.56091
O -34.0308 -5.70015 26.5714
O -29.8031 -5.15723 2.00746
O -29.5055 -7.13245 0.290408
O -29.8591 -4.82588 26.6467
O -29.3244 -13.7219 3.30418
Si -30.9249 -14.1062 3.29644
Si -27.9544 -12.8221 3.29199
O -30.7116 -10.2661 3.30569
Si -32.1348 -11.0931 3.29823
Si -29.0993 -9.97109 3.29403
O -32.8629 -10.483 4.66732
O -31.9024 -12.7492 3.29667
O -32.8632 -10.4827 1.92981
O -28.7558 -9.3424 4.74258
O -28.1794 -11.2569 3.02769
O -28.8578 -9.0243 2.00459
O -27.0695 -17.7561 0.564299
Si -28.5995 -18.3631 0.556937
Si -25.8401 -16.672 0.552502
O -28.9301 -14.5313 0.56603
Si -30.2221 -15.5511 0.55854
Si -27.3758 -14.0108 0.554237
O -31.0292 -15.0503 1.92762
O -29.7586 -17.1578 0.557127
O -31.0294 -15.0501 26.5673
O -27.1251 -13.3385 2.00234
O -26.2831 -15.1537 0.289389
O -27.2703 -13.0397 26.6417
O -24.2694 -21.4335 3.30024
Si -25.6984 -22.2503 3.29318
Si -23.2051 -20.1869 3.28881
O -26.565 -18.5027 3.30222
Si -27.7004 -19.6946 3.29453
Si -25.0998 -17.768 3.29021
O -28.5698 -19.3125 4.66362
O -27.0156 -21.2201 3.29326
O -28.57 -19.3123 1.92596
O -24.9466 -17.0663 4.73801
O -23.8569 -18.7458 3.02606
O -25.1319 -16.7919 2.00026
O -20.9798 -24.6809 0.561131
Si -22.2794 -25.691 0.554233
Si -20.1022 -23.2965 0.549907
O -23.6652 -22.1021 0.563378
Si -24.621 -23.4422 0.555368
Si -22.3183 -21.1682 0.551085
O -25.5356 -23.1862 1.9245
O -23.7284 -24.8563 0.554183
O -25.5357 -23.186 26.564
O -22.265 -20.4517 1.99879
O -20.9503 -21.9617 0.286632
O -22.4872 -20.2062 26.6384
O -17.2653 -27.4321 3.29784
Si -18.4092 -28.6157 3.29095
Si -16.5925 -25.9374 3.28667
O -20.2882 -25.2577 3.30027
Si -21.0448 -26.7195 3.29191
Si -19.0865 -24.1431 3.28764
O -21.9863 -26.5948 4.66108
O -19.9614 -27.9935 3.29077
O -21.9864 -26.5945 1.92321
O -19.1341 -23.4265 4.73547
O -17.6208 -24.7361 3.02218
O -19.3894 -23.2143 1.998
O -13.1986 -29.6293 0.559205
Si -14.1631 -30.9631 0.552266
Si -12.7453 -28.0542 0.548018
O -16.4999 -27.905 0.561844
Si -17.0413 -29.4595 0.553197
Si -15.468 -26.6316 0.548971
O -17.991 -29.4691 1.9224
O -15.788 -30.567 0.552039
O -17.9912 -29.4687 26.5617
O -15.6156 -25.9295 1.99707
O -13.9336 -27.0115 0.282124
O -15.8996 -25.7548 26.6369
O -8.86067 -31.2248 3.29615
Si -9.62547 -32.6823 3.28904
Si -8.6369 -29.6011 3.28484
O -12.3746 -29.9883 3.29869
Si -12.6889 -31.6041 3.28997
Si -11.5343 -28.5812 3.28576
O -13.6278 -31.7486 4.65919
O -11.2904 -32.5216 3.28879
O -13.628 -31.7482 1.92126
O -11.779 -27.9077 4.7342
O -9.96178 -28.7392 3.01754
O -12.0865 -27.7745 1.99681
O -4.33929 -32.1826 0.557644
Si -4.88788 -33.7345 0.550286
Si -4.35048 -30.5437 0.546094
O -7.99463 -31.462 0.559954
Si -8.07445 -33.1061 0.551284
Si -7.36378 -29.9493 0.547134
O -8.98322 -33.3832 1.9205
O -6.55877 -33.8138 0.550045
O -8.98357 -33.3829 26.5598
O -7.70113 -29.3182 1.99592
O -5.78515 -29.881 0.277682
O -8.02599 -29.2298 26.6357
O 0.272613 -32.4807 3.29457
Si -0.047803 -34.0952 3.2869
Si 0.0261766 -30.8604 3.2827
O -3.44879 -32.2928 3.29647
Si -3.29183 -33.9313 3.28795
Si -3.0411 -30.7054 3.28382
O -4.15159 -34.3359 4.65715
O -1.69005 -34.4137 3.28668
O -4.15199 -34.3358 1.91932
O -3.46471 -30.1294 4.73288
O -1.48881 -30.4112 3.01362
O -3.79995 -30.0884 1.99535
O 4.87932 -32.1117 0.55597
Si 4.79405 -33.7555 0.548042
Si 4.40261 -30.5436 0.543801
O 1.16943 -32.4613 0.55741
Si 1.56013 -34.0603 0.549101
Si 1.34498 -30.8318 0.544966
O 0.767388 -34.5844 1.91826
O 3.21471 -34.307 0.547834
O 0.766986 -34.5843 26.5578
O 0.843287 -30.323 1.99419
O 2.83875 -30.3174 0.274597
O 0.505166 -30.3305 26.6338
O 9.38484 -31.0835 3.29274
Si 9.53651 -32.7225 3.28467
Si 8.68804 -29.6001 3.2804
O 5.76405 -31.9631 3.29371
Si 6.3802 -33.4894 3.28567
Si 5.70361 -30.3252 3.28151
O 5.6711 -34.1221 4.6548
O 8.05302 -33.4956 3.28445
O 5.67074 -34.1222 1.91712
O 5.13383 -29.8941 4.73076
O 7.10782 -29.601 3.01156
O 4.80047 -29.95 1.99298
O 13.6959 -29.4192 0.554024
Si 14.0811 -31.0195 0.545932
Si 12.794 -28.0507 0.541632
O 10.2393 -30.809 0.554585
Si 11.0677 -32.2313 0.546844
Si 9.9444 -29.1968 0.542652
O 10.457 -32.9594 1.91594
O 12.7241 -31.9975 0.545689
O 10.4567 -32.9596 26.5556
O 9.31816 -28.8522 1.99181
O 11.23 -28.278 0.273569
O 8.99693 -28.9552 26.6312
O 17.7246 -27.1552 3.29086
Si 18.3347 -28.684 3.28277
Si 16.6367 -25.9293 3.27847
O 14.5028 -29.0247 3.29104
Si 15.5259 -30.3141 3.28355
Si 13.9801 -27.4712 3.27933
O 15.0258 -31.1221 4.65262
O 17.1317 -29.846 3.28248
O 15.0256 -31.1223 1.91504
O 13.3102 -27.2204 4.72828
O 15.1209 -26.3774 3.01141
O 13.008 -27.3677 1.99036
O 21.3898 -24.34 0.55239
Si 22.2116 -25.7662 0.544321
Si 20.1386 -23.2813 0.540022
O 18.4675 -26.6491 0.552324
Si 19.6638 -27.7797 0.54495
Si 17.7285 -25.1861 0.54072
O 19.2843 -28.6507 1.914
O 21.1865 -27.0878 0.543974
O 19.2841 -28.651 26.5537
O 17.0289 -25.0339 1.98941
O 18.7017 -23.9404 0.274017
O 16.7518 -25.2221 26.6287
O 24.6185 -21.0329 3.28952
Si 25.6345 -22.328 3.28154
Si 23.2299 -20.1622 3.27725
O 22.0538 -23.733 3.28931
Si 23.3984 -24.6824 3.28197
Si 21.1142 -22.39 3.27772
O 23.1467 -25.5984 4.65101
O 24.8075 -23.7816 3.28111
O 23.1466 -25.5987 1.91343
O 20.3993 -22.3394 4.72614
O 21.9005 -21.0183 3.01217
O 20.1528 -22.5642 1.98821
O 27.347 -17.3023 0.551404
Si 28.5362 -18.4404 0.543597
Si 25.8492 -16.6366 0.5393
O 25.1903 -20.3375 0.551093
Si 26.6557 -21.0871 0.543764
Si 24.0697 -19.1414 0.539503
O 26.5364 -22.0295 1.9128
O 27.9232 -19.9963 0.543064
O 26.5363 -22.0298 26.5524
O 23.3542 -19.1932 1.98767
O 24.6538 -17.6719 0.274937
O 23.1428 -19.4498 26.627
O 29.5219 -13.224 3.28906
Si 30.86 -14.1826 3.28143
Si 27.9451 -12.7763 3.27711
O 27.8152 -16.5328 3.2886
Si 29.3718 -17.068 3.2813
Si 26.5367 -15.5071 3.27701
O 29.3868 -18.0176 4.65033
O 30.4728 -15.8094 3.28077
O 29.3867 -18.0179 1.91268
O 25.8353 -15.6599 4.72497
O 26.9074 -13.9697 3.01317
O 25.6627 -15.9432 1.98713
O 31.1007 -8.87984 0.551763
Si 32.5606 -9.64004 0.54424
Si 29.4765 -8.6591 0.539915
O 29.8772 -12.3961 0.551052
Si 31.4938 -12.7062 0.543728
Si 28.4668 -11.5611 0.539387
O 31.6425 -13.6442 1.91275
O 32.4065 -11.3051 0.5434
O 31.6425 -13.6444 26.5523
O 27.7937 -11.8115 1.98722
O 28.6172 -9.98673 0.275884
O 27.663 -12.1158 26.6267
O 32.0518 -4.35652 3.29048
Si 33.6044 -4.90308 3.28296
Si 30.4128 -4.36738 3.27865
O 31.336 -8.01035 3.28952
Si 32.9802 -8.08911 3.28203
Si 29.8219 -7.38261 3.27765
O 33.2596 -8.99678 4.65106
O 33.6864 -6.5733 3.28189
O 33.2596 -8.99696 1.91329
O 29.1908 -7.72519 4.72545
O 29.7493 -5.8028 3.014
O 29.1042 -8.04506 1.98777
O 32.3551 0.255795 0.554238
Si 33.9694 -0.065857 0.546687
Si 30.7341 0.0130316 0.542473
O 32.1624 -3.46293 0.553019
Si 33.8011 -3.30834 0.545346
Si 30.5748 -3.05525 0.540949
O 34.2058 -4.16758 1.91439
O 34.2862 -1.7079 0.545388
O 34.2057 -4.16777 26.5538
O 29.9982 -3.48295 1.98885
O 30.2804 -1.50157 0.276812
O 29.9577 -3.81248 26.6285
O 32.0023 4.86459 8.7693
Si 33.6459 4.77489 8.76166
Si 30.4323 4.39412 8.7575
O 32.3384 1.15554 8.76782
Si 33.9386 1.54097 8.76002
Si 30.7091 1.33444 8.75568
O 34.4607 0.747469 10.1291
O 34.192 3.19411 8.76019
O 34.4606 0.747224 7.39121
O 30.1988 0.830252 10.2038
O 30.1981 2.83071 8.49072
O 30.2053 0.497241 7.46621
O 30.998 9.37628 6.03369
Si 32.6376 9.52104 6.02592
Si 29.511 8.68691 6.02176
O 31.8582 5.75222 6.03194
Si 33.3874 6.36136 6.02411
Si 30.2201 5.69802 6.0198
O 34.0168 5.64989 7.39317
O 33.4029 8.03385 6.02434
O 34.0167 5.64959 4.6553
O 29.7864 5.12744 7.46816
O 29.502 7.1064 5.7538
O 29.8402 4.79748 4.73059
O 29.3601 13.698 8.77367
Si 30.9623 14.0751 8.76564
Si 27.9869 12.8033 8.76149
O 30.729 10.2335 8.77169
Si 32.1556 11.0547 8.76382
Si 29.1154 9.94657 8.75951
O 32.88 10.4401 10.1329
O 31.9321 12.7123 8.76401
O 32.88 10.4397 7.39503
O 28.7671 9.32104 10.2082
O 28.2042 11.238 8.49236
O 28.8678 9.00083 7.47057
O 27.1202 17.7404 6.03806
Si 28.652 18.3427 6.0298
Si 25.8894 16.6582 6.02578
O 28.9715 14.5072 6.03591
Si 30.2658 15.5242 6.02808
Si 27.4154 13.9928 6.02379
O 31.0707 15.0195 7.39717
O 29.807 17.1327 6.02816
O 31.0708 15.019 4.65935
O 27.1599 13.3248 7.47273
O 26.3291 15.1405 5.75574
O 27.3058 13.0211 4.73507
O 24.323 21.419 8.77782
Si 25.7527 22.2346 8.76917
Si 23.2601 20.1715 8.76526
O 26.6196 18.485 8.77542
Si 27.7547 19.677 8.76766
Si 25.1531 17.753 8.76352
O 28.6237 19.2929 10.1367
O 27.0695 21.203 8.76759
O 28.624 19.2925 7.399
O 24.996 17.0558 10.2126
O 23.9133 18.7328 8.49516
O 25.1843 16.7756 7.47491
O 21.0266 24.6576 6.04168
Si 22.3247 25.6697 6.03275
Si 20.1532 23.2708 6.02896
O 23.7202 22.0839 6.03914
Si 24.673 23.4261 6.03154
Si 22.374 21.1491 6.02754
O 25.5882 23.1708 7.40063
O 23.7759 24.838 6.03131
O 25.5886 23.1704 4.66296
O 22.3188 20.4366 7.4767
O 21.0061 21.9406 5.75946
O 22.5452 20.1864 4.73885
O 17.2995 27.3894 8.781
Si 18.4395 28.5768 8.77143
Si 16.6329 25.8921 8.76775
O 20.334 25.2291 8.77782
Si 21.0852 26.6936 8.77051
Si 19.1355 24.1111 8.76667
O 22.0275 26.5724 10.1396
O 19.995 27.9621 8.77006
O 22.028 26.5722 7.402
O 19.1837 23.3979 10.2158
O 17.6677 24.6976 8.49945
O 19.443 23.1831 7.47775
O 13.2204 29.5617 6.04355
Si 14.1799 30.8991 6.03361
Si 12.7734 27.9849 6.03097
O 16.5317 27.856 6.04073
Si 17.0667 29.4126 6.03364
Si 15.5048 26.5785 6.02999
O 18.0163 29.4276 7.40283
O 15.807 30.5127 6.03257
O 18.0172 29.4274 4.66532
O 15.6555 25.879 7.47879
O 13.9679 26.9494 5.76444
O 15.9413 25.7042 4.74065
O 8.87486 31.1336 8.78171
Si 9.6352 32.5935 8.76978
Si 8.65389 29.5096 8.7706
O 12.3923 29.9145 8.77911
Si 12.7026 31.5309 8.77114
Si 11.5575 28.5038 8.76872
O 13.6402 31.681 10.1404
O 11.3004 32.4418 8.7688
O 13.6415 31.6808 7.40309
O 11.8086 27.8319 10.2168
O 9.98248 28.6513 8.50762
O 12.1132 27.701 7.47855
O 4.35325 32.0807 6.03279
Si 4.89942 33.6338 6.02418
Si 4.3568 30.4414 6.02134
O 7.99994 31.367 6.04145
Si 8.08403 33.0109 6.03152
Si 7.37426 29.8518 6.03303
O 8.99031 33.2914 7.4013
O 6.56904 33.7176 6.02583
O 8.99307 33.2912 4.66416
O 7.72199 29.2212 7.47994
O 5.79297 29.7699 5.77926
O 8.03665 29.1361 4.74161
O -0.26981 32.4101 8.70335
Si 0.0648808 34.0123 8.76727
Si -0.0228714 30.8048 8.85816
O 3.46032 32.194 8.77094
Si 3.30655 33.8328 8.76112
Si 3.04195 30.6094 8.75928
O 4.16395 34.2364 10.1316
O 1.70779 34.3222 8.75279
O 4.16693 34.2362 7.39341
O 3.48709 30.0243 10.1983
O 1.47798 30.332 8.54244
O 3.7767 29.9862 7.45971
O -4.25522 32.1566 5.67351
Si -4.75027 33.7212 5.77952
Si -4.34663 30.5261 5.5494
O -1.64147 32.36 6.23506
Si -1.57407 34.0044 6.03688
Si -1.38403 30.7315 6.13469
O -0.768067 34.5132 7.40798
O -3.20719 34.378 5.91474
O -0.709922 34.4617 4.69275
O -0.856166 30.2432 7.58576
O -2.8279 30.0787 5.84999
O -0.448629 30.3412 4.87313
O -8.89802 31.1333 8.97771
Si -9.50289 32.6638 8.77946
Si -8.60935 29.5101 8.87827
O -6.36647 31.8005 8.4022
Si -6.41085 33.4405 8.51685
Si -5.74508 30.2896 8.28666
O -5.59284 34.0174 9.8486
O -8.08375 33.5537 8.65531
O -5.71224 33.9992 7.11115
O -4.71935 30.0539 9.51784
O -7.03157 29.3679 8.59079
O -5.23616 29.9636 6.78071
O -13.6642 29.3011 6.03785
Si -14.0559 30.8998 6.02807
Si -12.7509 27.9402 6.02559
O -10.2136 30.7281 5.96834
Si -11.0533 32.1328 6.03439
Si -9.9197 29.1309 6.12621
O -10.4697 32.8111 7.43566
O -12.7068 31.8871 6.01969
O -10.4306 32.8798 4.67552
O -9.36621 28.8344 7.61739
O -11.1817 28.1904 5.81156
O -8.94721 28.8753 4.85407
O -17.6842 27.0361 8.78586
Si -18.3007 28.5623 8.77548
Si -16.5997 25.8066 8.77702
O -14.4726 28.9 8.77364
Si -15.495 30.1905 8.7666
Si -13.9395 27.3497 8.76308
O -15.0003 30.9994 10.1356
O -17.1002 29.7251 8.76913
O -14.998 31.0006 7.39852
O -13.2396 27.1111 10.2005
O -15.077 26.2439 8.52627
O -12.9826 27.2395 7.46346
O -21.3673 24.2351 6.0481
Si -22.1862 25.6629 6.04046
Si -20.1206 23.1708 6.03782
O -18.4376 26.5291 6.04961
Si -19.6307 27.6631 6.03835
Si -17.7 25.0654 6.03913
O -19.2511 28.5315 7.40821
O -21.1562 26.9796 6.0378
O -19.2485 28.5328 4.66986
O -16.9921 24.9149 7.48471
O -18.6772 23.8205 5.78029
O -16.7257 25.0952 4.74755
O -24.6203 20.9496 8.78652
Si -25.6303 22.2492 8.77959
Si -23.2362 20.0714 8.77606
O -22.0387 23.6315 8.78793
Si -23.3787 24.5875 8.77846
Si -21.1045 22.2847 8.77553
O -23.1227 25.5011 10.1479
O -24.7939 23.697 8.77808
O -23.1216 25.5015 7.40971
O -20.3852 22.2321 10.2221
O -21.8996 20.9172 8.51354
O -20.143 22.4514 7.48496
O -27.3764 17.2385 6.04974
Si -28.5595 18.3828 6.04268
Si -25.8818 16.5655 6.03888
O -25.1986 20.2594 6.05139
Si -26.6603 21.0163 6.04205
Si -24.0846 19.0572 6.03837
O -26.5348 21.9573 7.41135
O -27.9355 19.9343 6.04151
O -26.5341 21.9576 4.67322
O -23.3674 19.1038 7.48594
O -24.6797 17.5924 5.77293
O -23.1553 19.3587 4.7488
O -29.5751 13.1729 8.78805
Si -30.9088 14.1374 8.78069
Si -27.9997 12.7204 8.77681
O -27.8497 16.4746 8.78976
Si -29.4044 17.0155 8.78053
Si -26.5766 15.4424 8.77664
O -29.4135 17.9651 10.1498
O -30.5121 15.7623 8.77972
O -29.4129 17.9655 7.41175
O -25.8749 15.5883 10.225
O -26.9578 13.9087 8.50845
O -25.6993 15.8738 7.48779
O -31.1666 8.83396 6.05041
Si -32.6246 9.59777 6.04263
Si -29.5427 8.61243 6.03867
O -29.9332 12.3501 6.05202
Si -31.5493 12.6626 6.04302
Si -28.5258 11.5103 6.03911
O -31.6942 13.6015 7.41231
O -32.4654 11.263 6.04192
O -31.6937 13.602 4.67435
O -27.8532 11.7537 7.48808
O -28.6833 9.93831 5.76901
O -27.7192 12.0636 4.75071
O -32.1153 4.31134 8.78746
Si -33.6679 4.85779 8.77937
Si -30.4764 4.32557 8.77531
O -31.4018 7.96877 8.78896
Si -33.046 8.04586 8.78033
Si -29.8884 7.33973 8.77639
O -33.3246 8.95422 10.1496
O -33.7505 6.5286 8.77898
O -33.3243 8.95486 7.41177
O -29.2585 7.67653 10.2257
O -29.8175 5.76161 8.50545
O -29.1699 8.00364 7.48815
O -32.4014 -0.300635 6.04842
Si -34.0165 0.0169697 6.04011
Si -30.7816 -0.0513213 6.03598
O -32.2226 3.42117 6.04988
Si -33.8608 3.26129 6.04154
Si -30.6345 3.01627 6.03757
O -34.2675 4.12008 7.41074
O -34.3392 1.65835 6.04
O -34.2675 4.12069 4.67308
O -30.06 3.44044 7.48699
O -30.3364 1.46482 5.7669
O -30.0194 3.77684 4.74922
O -32.0215 -4.90606 8.78419
Si -33.6655 -4.82329 8.77593
Si -30.454 -4.42757 8.7717
O -32.3791 -1.19763 8.78563
Si -33.9775 -1.59052 8.77767
Si -30.7492 -1.37031 8.77368
O -34.5035 -0.799192 10.1468
O -34.2207 -3.24543 8.77602
O -34.5037 -0.798681 7.40926
O -30.242 -0.867098 10.223
O -30.2307 -2.86294 8.50404
O -30.2501 -0.529418 7.48504
O -30.9874 -9.4101 6.04424
Si -32.6263 -9.56294 6.03615
Si -29.5039 -8.71335 6.0318
O -31.8706 -5.79154 6.04566
Si -33.3966 -6.40828 6.03801
Si -30.2327 -5.72917 6.03393
O -34.0306 -5.70056 7.40711
O -33.4013 -8.08079 6.03636
O -34.0308 -5.70015 4.66962
O -29.8031 -5.15723 7.48291
O -29.5055 -7.13245 5.76586
O -29.8591 -4.82588 4.7449
O -29.3244 -13.7219 8.77963
Si -30.9249 -14.1062 8.77189
Si -27.9544 -12.8221 8.76744
O -30.7116 -10.2661 8.78114
Si -32.1348 -11.0931 8.77368
Si -29.0993 -9.97109 8.76948
O -32.8629 -10.483 10.1428
O -31.9024 -12.7492 8.77212
O -32.8632 -10.4827 7.40526
O -28.7558 -9.3424 10.218
O -28.1794 -11.2569 8.50314
O -28.8578 -9.0243 7.48003
O -27.0695 -17.7561 6.03975
Si -28.5995 -18.3631 6.03239
Si -25.8401 -16.672 6.02795
O -28.9301 -14.5313 6.04148
Si -30.2221 -15.5511 6.03399
Si -27.3758 -14.0108 6.02969
O -31.0292 -15.0503 7.40307
O -29.7586 -17.1578 6.03258
O -31.0294 -15.0501 4.66551
O -27.1251 -13.3385 7.47779
O -26.2831 -15.1537 5.76484
O -27.2703 -13.0397 4.73989
O -24.2694 -21.4335 8.77569
Si -25.6984 -22.2503 8.76863
Si -23.2051 -20.1869 8.76426
O -26.565 -18.5027 8.77767
Si -27.7004 -19.6946 8.76998
Si -25.0998 -17.768 8.76566
O -28.5698 -19.3125 10.1391
O -27.0156 -21.2201 8.76871
O -28.57 -19.3123 7.40141
O -24.9466 -17.0663 10.2135
O -23.8569 -18.7458 8.50151
O -25.1319 -16.7919 7.47571
O -20.9798 -24.6809 6.03658
Si -22.2794 -25.691 6.02968
Si -20.1022 -23.2965 6.02536
O -23.6652 -22.1021 6.03883
Si -24.621 -23.4422 6.03082
Si -22.3183 -21.1682 6.02653
O -25.5356 -23.1862 7.39995
O -23.7284 -24.8563 6.02963
O -25.5357 -23.186 4.66217
O -22.265 -20.4517 7.47424
O -20.9503 -21.9617 5.76208
O -22.4872 -20.2062 4.73664
O -17.2653 -27.4321 8.77329
Si -18.4092 -28.6157 8.7664
Si -16.5925 -25.9374 8.76212
O -20.2882 -25.2577 8.77572
Si -21.0448 -26.7195 8.76736
Si -19.0865 -24.1431 8.76309
O -21.9863 -26.5948 10.1365
O -19.9614 -27.9935 8.76622
O -21.9864 -26.5945 7.39866
O -19.1341 -23.4265 10.2109
O -17.6208 -24.7361 8.49763
O -19.3894 -23.2143 7.47345
O -13.1986 -29.6293 6.03465
Si -14.1631 -30.9631 6.02771
Si -12.7453 -28.0542 6.02347
O -16.4999 -27.905 6.03729
Si -17.0413 -29.4595 6.02865
Si -15.468 -26.6316 6.02442
O -17.991 -29.4691 7.39785
O -15.788 -30.567 6.02749
O -17.9912 -29.4687 4.65993
O -15.6156 -25.9295 7.47252
O -13.9336 -27.0115 5.75757
O -15.8996 -25.7548 4.73513
O -8.86067 -31.2248 8.7716
Si -9.62547 -32.6823 8.76449
Si -8.6369 -29.6011 8.76029
O -12.3746 -29.9883 8.77414
Si -12.6889 -31.6041 8.76542
Si -11.5343 -28.5812 8.76121
O -13.6278 -31.7486 10.1346
O -11.2904 -32.5216 8.76424
O -13.628 -31.7482 7.3967
O -11.779 -27.9077 10.2096
O -9.96178 -28.7392 8.49299
O -12.0865 -27.7745 7.47226
O -4.33929 -32.1826 6.03309
Si -4.88788 -33.7345 6.02573
Si -4.35048 -30.5437 6.02154
O -7.99463 -31.462 6.0354
Si -8.07445 -33.1061 6.02673
Si -7.36378 -29.9493 6.02258
O -8.98322 -33.3832 7.39595
O -6.55877 -33.8138 6.02549
O -8.98357 -33.3829 4.65805
O -7.70113 -29.3182 7.47137
O -5.78515 -29.881 5.75313
O -8.02599 -29.2298 4.73393
O 0.272613 -32.4807 8.77002
Si -0.047803 -34.0952 8.76235
Si 0.0261766 -30.8604 8.75815
O -3.44879 -32.2928 8.77192
Si -3.29183 -33.9313 8.7634
Si -3.0411 -30.7054 8.75927
O -4.15159 -34.3359 10.1326
O -1.69005 -34.4137 8.76213
O -4.15199 -34.3358 7.39477
O -3.46471 -30.1294 10.2083
O -1.48881 -30.4112 8.48907
O -3.79995 -30.0884 7.4708
O 4.87932 -32.1117 6.03142
Si 4.79405 -33.7555 6.02349
Si 4.40261 -30.5436 6.01925
O 1.16943 -32.4613 6.03286
Si 1.56013 -34.0603 6.02455
Si 1.34498 -30.8318 6.02041
O 0.767388 -34.5844 7.39371
O 3.21471 -34.307 6.02328
O 0.766986 -34.5843 4.65596
O 0.843287 -30.323 7.46964
O 2.83875 -30.3174 5.75005
O 0.505166 -30.3305 4.73199
O 9.38484 -31.0835 8.76819
Si 9.53651 -32.7225 8.76012
Si 8.68804 -29.6001 8.75585
O 5.76405 -31.9631 8.76916
Si 6.3802 -33.4894 8.76112
Si 5.70361 -30.3252 8.75696
O 5.6711 -34.1221 10.1302
O 8.05302 -33.4956 8.7599
O 5.67074 -34.1222 7.39257
O 5.13383 -29.8941 10.2062
O 7.10782 -29.601 8.48701
O 4.80047 -29.95 7.46843
O 13.6959 -29.4192 6.02947
Si 14.0811 -31.0195 6.02138
Si 12.794 -28.0507 6.01708
O 10.2393 -30.809 6.03003
Si 11.0677 -32.2313 6.02229
Si 9.9444 -29.1968 6.0181
O 10.457 -32.9594 7.39139
O 12.7241 -31.9975 6.02114
O 10.4567 -32.9596 4.65377
O 9.31816 -28.8522 7.46726
O 11.23 -28.278 5.74902
O 8.99693 -28.9552 4.72938
O 17.7246 -27.1552 8.76631
Si 18.3347 -28.684 8.75822
Si 16.6367 -25.9293 8.75392
O 14.5028 -29.0247 8.76649
Si 15.5259 -30.3141 8.759
Si 13.9801 -27.4712 8.75478
O 15.0258 -31.1221 10.1281
O 17.1317 -29.846 8.75793
O 15.0256 -31.1223 7.39049
O 13.3102 -27.2204 10.2037
O 15.1209 -26.3774 8.48686
O 13.008 -27.3677 7.4658
O 21.3898 -24.34 6.02784
Si 22.2116 -25.7662 6.01977
Si 20.1386 -23.2813 6.01547
O 18.4675 -26.6491 6.02777
Si 19.6638 -27.7797 6.0204
Si 17.7285 -25.1861 6.01617
O 19.2843 -28.6507 7.38945
O 21.1865 -27.0878 6.01942
O 19.2841 -28.651 4.65189
O 17.0289 -25.0339 7.46486
O 18.7017 -23.9404 5.74947
O 16.7518 -25.2221 4.72692
O 24.6185 -21.0329 8.76497
Si 25.6345 -22.328 8.75699
Si 23.2299 -20.1622 8.75269
O 22.0538 -23.733 8.76476
Si 23.3984 -24.6824 8.75742
Si 21.1142 -22.39 8.75317
O 23.1467 -25.5984 10.1265
O 24.8075 -23.7816 8.75656
O 23.1466 -25.5987 7.38888
O 20.3993 -22.3394 10.2016
O 21.9005 -21.0183 8.48762
O 20.1528 -22.5642 7.46366
O 27.347 -17.3023 6.02685
Si 28.5362 -18.4404 6.01905
Si 25.8492 -16.6366 6.01475
O 25.1903 -20.3375 6.02654
Si 26.6557 -21.0871 6.01921
Si 24.0697 -19.1414 6.01495
O 26.5364 -22.0295 7.38825
O 27.9232 -19.9963 6.01851
O 26.5363 -22.0298 4.65063
O 23.3542 -19.1932 7.46311
O 24.6538 -17.6719 5.75039
O 23.1428 -19.4498 4.72522
O 29.5219 -13.224 8.76451
Si 30.86 -14.1826 8.75688
Si 27.9451 -12.7763 8.75256
O 27.8152 -16.5328 8.76404
Si 29.3718 -17.068 8.75675
Si 26.5367 -15.5071 8.75246
O 29.3868 -18.0176 10.1258
O 30.4728 -15.8094 8.75622
O 29.3867 -18.0179 7.38812
O 25.8353 -15.6599 10.2004
O 26.9074 -13.9697 8.48862
O 25.6627 -15.9432 7.46258
O 31.1007 -8.87984 6.02721
Si 32.5606 -9.64004 6.01969
Si 29.4765 -8.6591 6.01536
O 29.8772 -12.3961 6.0265
Si 31.4938 -12.7062 6.01918
Si 28.4668 -11.5611 6.01484
O 31.6425 -13.6442 7.3882
O 32.4065 -11.3051 6.01885
O 31.6425 -13.6444 4.65049
O 27.7937 -11.8115 7.46266
O 28.6172 -9.98673 5.75133
O 27.663 -12.1158 4.72489
O 32.0518 -4.35652 8.76592
Si 33.6044 -4.90308 8.7584
Si 30.4128 -4.36738 8.7541
O 31.336 -8.01035 8.76497
Si 32.9802 -8.08911 8.75748
Si 29.8219 -7.38261 8.7531
O 33.2596 -8.99678 10.1265
O 33.6864 -6.5733 8.75734
O 33.2596 -8.99696 7.38874
O 29.1908 -7.72519 10.2009
O 29.7493 -5.8028 8.48945
O 29.1042 -8.04506 7.46322
O 32.3551 0.255795 6.02969
Si 33.9694 -0.065857 6.02214
Si 30.7341 0.0130316 6.01792
O 32.1624 -3.46293 6.02847
Si 33.8011 -3.30834 6.02079
Si 30.5748 -3.05525 6.0164
O 34.2058 -4.16758 7.38984
O 34.2862 -1.7079 6.02084
O 34.2057 -4.16777 4.65201
O 29.9982 -3.48295 7.4643
O 30.2804 -1.50157 5.75226
O 29.9577 -3.81248 4.72669
O 32.0023 4.86459 14.2447
Si 33.6459 4.77489 14.2371
Si 30.4323 4.39412 14.2329
O 32.3384 1.15554 14.2433
Si 33.9386 1.54097 14.2355
Si 30.7091 1.33444 14.2311
O 34.4607 0.747469 15.6045
O 34.192 3.19411 14.2356
O 34.4606 0.747224 12.8667
O 30.1988 0.830252 15.6792
O 30.1981 2.83071 13.9662
O 30.2053 0.497241 12.9417
O 30.998 9.37628 11.5091
Si 32.6376 9.52104 11.5014
Si 29.511 8.68691 11.4972
O 31.8582 5.75222 11.5074
Si 33.3874 6.36136 11.4996
Si 30.2201 5.69802 11.4953
O 34.0168 5.64989 12.8686
O 33.4029 8.03385 11.4998
O 34.0167 5.64959 10.1307
O 29.7864 5.12744 12.9436
O 29.502 7.1064 11.2293
O 29.8402 4.79748 10.206
O 29.3601 13.698 14.2491
Si 30.9623 14.0751 14.2411
Si 27.9869 12.8033 14.2369
O 30.729 10.2335 14.2471
Si 32.1556 11.0547 14.2393
Si 29.1154 9.94657 14.235
O 32.88 10.4401 15.6083
O 31.9321 12.7123 14.2395
O 32.88 10.4397 12.8705
O 28.7671 9.32104 15.6836
O 28.2042 11.238 13.9678
O 28.8678 9.00083 12.946
O 27.1202 17.7404 11.5135
Si 28.652 18.3427 11.5052
Si 25.8894 16.6582 11.5012
O 28.9715 14.5072 11.5114
Si 30.2658 15.5242 11.5035
Si 27.4154 13.9928 11.4992
O 31.0707 15.0195 12.8726
O 29.807 17.1327 11.5036
O 31.0708 15.019 10.1348
O 27.1599 13.3248 12.9482
O 26.3291 15.1405 11.2312