2688
 Atoms. Timestep: 24060
O 15.1784 2.14735 5.94364
Si 16.8021 1.93461 6.10148
Si 13.6252 1.64589 5.95788
O 15.2703 -1.5236 7.34156
Si 16.8785 -1.25545 7.14353
Si 13.7028 -1.10277 7.21449
O 17.3459 -1.6 8.73026
O 17.1914 0.347255 6.62062
O 17.1765 -2.56366 6.09533
O 13.1652 -0.944906 8.71542
O 13.5312 0.0784542 6.15461
O 13.0028 -2.15888 6.23598
O 14.3202 5.47165 1.73251
Si 15.9505 5.62534 1.89042
Si 12.9177 4.63679 1.74679
O 15.2268 1.91295 3.13098
Si 16.735 2.53229 2.93274
Si 13.605 1.97448 3.00356
O 17.2671 2.30035 4.51953
O 16.6834 4.16447 2.40972
O 17.3167 1.3232 1.88461
O 13.0454 2.00883 4.50438
O 13.1753 3.08777 1.94333
O 13.1576 0.78895 2.02522
O 14.8428 3.83338 11.2072
Si 16.48 3.80376 11.3651
Si 13.3556 3.16088 11.2215
O 15.3453 0.195605 12.6054
Si 16.9133 0.642339 12.4073
Si 13.7405 0.438255 12.4781
O 17.4163 0.352425 13.9941
O 17.0448 2.26998 11.8842
O 17.3558 -0.624366 11.3591
O 13.1886 0.535463 13.979
O 13.4382 1.59276 11.418
O 13.1631 -0.689937 11.5
O 13.6174 7.04063 6.99635
Si 15.2202 7.37585 7.15411
Si 12.3171 6.05405 7.01042
O 14.9167 3.60584 8.39462
Si 16.3461 4.39012 8.19643
Si 13.2982 3.48547 8.26726
O 16.9011 4.2193 9.78316
O 16.1121 6.00625 7.6734
O 17.0594 3.25372 7.14825
O 12.7385 3.45673 9.76817
O 12.7465 4.54362 7.20705
O 12.9862 2.2573 7.289
O 11.7089 9.89403 2.78486
Si 13.1968 10.5777 2.94284
Si 10.6607 8.64282 2.79916
O 13.7403 6.83493 4.18335
Si 14.9592 7.91773 3.98531
Si 12.1892 6.35734 4.05614
O 15.5382 7.87462 5.57208
O 14.3713 9.44113 3.46213
O 15.9077 6.96867 2.93716
O 11.6498 6.20506 5.55703
O 11.4158 7.266 2.99581
O 12.1586 5.0904 3.07802
O 12.7432 8.52074 12.26
Si 14.2984 9.03349 12.4177
Si 11.5616 7.39469 12.274
O 14.4193 5.25329 13.6582
Si 15.7518 6.19277 13.46
Si 12.8245 4.9523 13.5309
O 16.3223 6.08528 15.0468
O 15.3381 7.77243 12.9369
O 16.5879 5.14341 12.4119
O 12.2714 4.86145 15.0318
O 12.1577 5.94191 12.4707
O 12.6522 3.69674 12.5528
O 10.5272 11.1429 8.04831
Si 11.9292 11.9888 8.20644
Si 9.62552 9.78229 8.06258
O 12.8882 8.33045 9.44689
Si 13.9783 9.54281 9.24891
Si 11.4002 7.68221 9.31973
O 14.5585 9.56485 10.8357
O 13.2235 10.9908 8.72581
O 15.0272 8.70592 8.20088
O 10.8815 7.47014 10.8207
O 10.5296 8.49841 8.25952
O 11.5118 6.41987 8.34148
O 7.78357 13.2066 3.83728
Si 8.96233 14.3433 3.99534
Si 7.20723 11.6796 3.85149
O 10.7108 10.9896 5.23556
Si 11.504 12.4141 5.03763
Si 9.40447 10.0265 5.10821
O 12.0647 12.5645 6.6244
O 10.4461 13.658 4.5146
O 12.7127 11.8315 3.98955
O 8.94576 9.70443 6.60915
O 8.37417 10.6288 4.0481
O 9.79426 8.82044 4.13024
O 9.21328 12.2512 13.312
Si 10.5117 13.249 13.4701
Si 8.46949 10.7983 13.3264
O 11.8741 9.72085 14.7102
Si 12.8216 11.0477 14.5124
Si 10.4681 8.90993 14.5833
O 13.3957 11.1346 16.0992
O 11.9096 12.4021 13.9894
O 13.9576 10.3336 13.4644
O 9.97641 8.64136 16.0842
O 9.51125 9.6234 13.5233
O 10.7204 7.66799 13.6051
O 6.25601 13.9956 9.10092
Si 7.30011 15.2571 9.25921
Si 5.85421 12.4136 9.11536
O 9.41294 12.1198 10.4994
Si 10.0416 13.6241 10.3014
Si 8.2226 11.0165 10.372
O 10.582 13.8364 11.8881
O 8.85122 14.742 9.77845
O 11.3078 13.1805 9.25322
O 7.80286 10.6449 11.8728
O 7.13131 11.4999 9.31194
O 8.74458 9.86181 9.39366
O 2.98483 15.0379 4.89057
Si 3.72219 16.5 5.04851
Si 2.94528 13.4062 4.90486
O 6.48046 13.9114 6.28835
Si 6.75837 15.518 6.09039
Si 5.56529 12.5711 6.16103
O 7.23803 15.8452 7.67715
O 5.34904 16.343 5.5676
O 8.0915 15.367 5.0421
O 5.23834 12.1157 7.66191
O 4.39391 12.8001 5.10108
O 6.3309 11.5613 5.18274
O -0.436152 15.3259 59.6335
Si -0.04267 16.9155 59.7914
Si -0.111471 13.7264 59.6477
O 3.22246 15.0059 2.07796
Si 3.13598 16.634 1.87978
Si 2.62861 13.4955 1.95058
O 3.53064 17.0597 3.46656
O 1.57837 17.1245 60.3105
O 4.46931 16.7835 59.7851
O 2.41121 12.9787 3.45139
O 1.43574 13.4582 59.8441
O 3.59952 12.6814 59.9256
O 4.6495 14.609 14.3651
Si 5.54612 15.9793 14.5231
Si 4.42754 12.992 14.3792
O 7.99702 13.0979 15.7629
Si 8.45318 14.6632 15.565
Si 6.93745 11.8685 15.6356
O 8.96649 14.9347 17.1517
O 7.14515 15.6409 15.0422
O 9.761 14.3639 14.5168
O 6.56175 11.4526 17.1365
O 5.79912 12.2273 14.5756
O 7.58505 10.7792 14.6574
O 1.28224 15.2784 10.1545
Si 1.85149 16.8138 10.3124
Si 1.42602 13.6526 10.1687
O 4.88263 14.5505 11.5524
Si 4.9787 16.178 11.3543
Si 4.1231 13.1163 11.4249
O 5.4186 16.5569 12.9411
O 3.48578 16.8399 10.8314
O 6.32035 16.177 10.306
O 3.84903 12.6271 12.9257
O 2.93369 13.2134 10.3647
O 4.99653 12.1982 10.4466
O -2.14915 15.1807 5.94377
Si -1.93617 16.8043 6.10146
Si -1.6475 13.6275 5.9579
O 1.52206 15.2726 7.34157
Si 1.25389 16.8808 7.14353
Si 1.10116 13.7051 7.21444
O 1.59841 17.3482 8.73028
O -0.348827 17.1937 6.62061
O 2.56212 17.1786 6.09531
O 0.94306 13.1676 8.7154
O -0.0800269 13.5338 6.15448
O 2.15737 13.0049 6.23614
O -5.47305 14.3224 1.73246
Si -5.62681 15.9528 1.89041
Si -4.6383 12.9198 1.74673
O -1.91448 15.2289 3.1309
Si -2.53379 16.7371 2.93275
Si -1.97598 13.6071 3.00353
O -2.30188 17.2693 4.51952
O -4.16595 16.6857 2.40973
O -1.32467 17.3188 1.88461
O -2.0103 13.0476 4.50441
O -3.08926 13.1773 1.94333
O -0.790405 13.1596 2.02525
O -3.8349 14.8448 11.2071
Si -3.80527 16.4821 11.3651
Si -3.16243 13.3576 11.2215
O -0.19735 15.3473 12.6055
Si -0.643937 16.9154 12.4073
Si -0.43994 13.7426 12.4782
O -0.354047 17.4183 13.9941
O -2.27153 17.0469 11.8842
O 0.622718 17.358 11.3593
O -0.536913 13.1906 13.9791
O -1.5943 13.44 11.418
O 0.688269 13.1654 11.5
O -7.0423 13.6195 6.99633
Si -7.37749 15.2224 7.15406
Si -6.05576 12.3192 7.01027
O -3.60748 14.9188 8.39448
Si -4.39169 16.3482 8.19636
Si -3.48711 13.3002 8.26722
O -4.22084 16.9031 9.78311
O -6.00786 16.1143 7.67339
O -3.25531 17.0616 7.1482
O -3.45838 12.7405 9.76815
O -4.54522 12.7483 7.20703
O -2.25884 12.9883 7.28898
O -9.89601 11.7113 2.78503
Si -10.5795 13.1993 2.94285
Si -8.64476 10.6632 2.79909
O -6.83656 13.7428 4.1834
Si -7.91938 14.9617 3.98526
Si -6.35918 12.1917 4.05597
O -7.87624 15.5406 5.57206
O -9.44279 14.3737 3.46209
O -6.9702 15.91 2.93713
O -6.20696 11.6521 5.5568
O -7.26822 11.4188 2.99556
O -5.09222 12.1608 3.07786
O -8.52227 12.7455 12.26
Si -9.03506 14.3007 12.4177
Si -7.39629 11.5638 12.2741
O -5.2548 14.4215 13.6581
Si -6.19431 15.754 13.46
Si -4.95386 12.8267 13.5309
O -6.08675 16.3246 15.0467
O -7.77401 15.3404 12.9369
O -5.14493 16.5901 12.4118
O -4.86302 12.2736 15.0317
O -5.94353 12.1598 12.4707
O -3.69833 12.6542 12.5527
O -11.1443 10.5294 8.0484
Si -11.9903 11.9315 8.20653
Si -9.78381 9.62771 8.06277
O -8.33195 12.8904 9.44687
Si -9.54436 13.9805 9.2489
Si -7.68371 11.4025 9.31985
O -9.56634 14.5607 10.8357
O -10.9924 13.2257 8.72588
O -8.70759 15.0294 8.20079
O -7.47163 10.8837 10.8208
O -8.49993 10.5318 8.25976
O -6.42154 11.5139 8.34137
O -13.2079 7.78603 3.83728
Si -14.3447 8.96462 3.99551
Si -11.6809 7.20951 3.85181
O -10.9911 10.7131 5.23567
Si -12.4155 11.5062 5.03774
Si -10.0278 9.40683 5.10842
O -12.566 12.067 6.6245
O -13.6595 10.4484 4.51476
O -11.8332 12.715 3.98969
O -9.70566 8.94811 6.6093
O -10.6298 8.37608 4.04858
O -8.82198 9.7968 4.13025
O -12.2533 9.21554 13.3121
Si -13.2508 10.5141 13.4702
Si -10.8003 8.4719 13.3263
O -9.72255 11.8766 14.7102
Si -11.0495 12.8241 14.5124
Si -8.91193 10.4705 14.5832
O -11.1364 13.3982 16.0992
O -12.4039 11.912 13.9894
O -10.3352 13.96 13.4644
O -8.64347 9.97884 16.0842
O -9.62558 9.51397 13.523
O -7.6698 10.7227 13.6052
O -13.9977 6.25834 9.10118
Si -15.259 7.30259 9.25926
Si -12.4157 5.85654 9.11539
O -12.1217 9.41519 10.4994
Si -13.6259 10.044 10.3014
Si -11.0185 8.22484 10.372
O -13.8382 10.5844 11.8882
O -14.7439 8.85364 9.77851
O -13.1821 11.3101 9.25328
O -10.647 7.80509 11.8729
O -11.5021 7.1337 9.31198
O -9.86361 8.74663 9.39372
O -15.0402 2.98705 4.89074
Si -16.5022 3.72471 5.04858
Si -13.4085 2.94775 4.90492
O -13.9134 6.48306 6.28841
Si -15.5199 6.76093 6.09048
Si -12.5732 5.56767 6.16106
O -15.8472 7.24057 7.67721
O -16.345 5.35162 5.56765
O -15.3686 8.09397 5.04214
O -12.118 5.24063 7.66194
O -12.8026 4.39649 5.10097
O -11.563 6.33302 5.18298
O -15.3278 -0.433735 59.6335
Si -16.9173 -0.0401684 59.7913
Si -13.7283 -0.108805 59.6477
O -15.008 3.22526 2.07798
Si -16.6361 3.13856 1.87981
Si -13.4977 2.63129 1.95061
O -17.0619 3.53319 3.46659
O -17.1264 1.5809 60.3104
O -16.7854 4.47192 59.7851
O -12.981 2.41371 3.45145
O -13.4607 1.43853 59.844
O -12.6833 3.60198 59.9257
O -14.6106 4.65219 14.3651
Si -15.9809 5.5486 14.5232
Si -12.9935 4.43011 14.3793
O -13.0995 7.99929 15.7632
Si -14.6647 8.45553 15.5652
Si -11.87 6.93989 15.6358
O -14.9362 8.96873 17.1519
O -15.6425 7.14759 15.0423
O -14.3655 9.76339 14.517
O -11.4539 6.56421 17.1367
O -12.2285 5.80145 14.5758
O -10.7809 7.58773 14.6575
O -15.28 1.28479 10.1546
Si -16.8155 1.85393 10.3124
Si -13.6542 1.42849 10.1687
O -14.5523 4.8849 11.5525
Si -16.1798 4.9811 11.3544
Si -13.1179 4.12548 11.425
O -16.5586 5.42104 12.9412
O -16.8417 3.48819 10.8315
O -16.1789 6.32273 10.306
O -12.6287 3.85147 12.9258
O -13.2148 2.9361 10.3648
O -12.2 4.99899 10.4466
O -15.1825 -2.14656 5.94347
Si -16.8061 -1.93373 6.10138
Si -13.6293 -1.64495 5.95769
O -15.2745 1.52443 7.34166
Si -16.8827 1.25632 7.14358
Si -13.707 1.10356 7.21452
O -17.35 1.60083 8.73035
O -17.1955 -0.346405 6.62058
O -17.1807 2.56455 6.0954
O -13.1694 0.945515 8.71543
O -13.5355 -0.0774994 6.15444
O -13.0071 2.15988 6.23617
O -14.3241 -5.47055 1.7323
Si -15.9544 -5.62431 1.89032
Si -12.9215 -4.63576 1.74655
O -15.2307 -1.912 3.13081
Si -16.7388 -2.5313 2.93264
Si -13.6088 -1.97346 3.00334
O -17.2711 -2.29948 4.51941
O -16.6874 -4.16346 2.40957
O -17.3206 -1.32216 1.88461
O -13.0493 -2.00772 4.50421
O -13.1789 -3.08668 1.94311
O -13.1616 -0.787647 2.02527
O -14.8463 -3.83228 11.2071
Si -16.4836 -3.80283 11.3651
Si -13.3589 -3.16003 11.2214
O -15.3489 -0.194987 12.6053
Si -16.9169 -0.641535 12.4073
Si -13.7441 -0.43757 12.4782
O -17.4201 -0.351537 13.9941
O -17.0485 -2.2692 11.8843
O -17.3597 0.62512 11.3592
O -13.1923 -0.534254 13.9792
O -13.4407 -1.5919 11.4182
O -13.167 0.690723 11.5001
O -13.6213 -7.03971 6.99631
Si -15.2241 -7.37497 7.15407
Si -12.321 -6.05317 7.01043
O -14.9205 -3.60494 8.39457
Si -16.3499 -4.3892 8.19633
Si -13.302 -3.48448 8.26717
O -16.9047 -4.21827 9.78308
O -16.1159 -6.00532 7.67333
O -17.0633 -3.25287 7.14816
O -12.7421 -3.45576 9.76798
O -12.7501 -4.54268 7.20711
O -12.9901 -2.25633 7.28878
O -11.7127 -9.89307 2.78507
Si -13.2007 -10.5767 2.9429
Si -10.6648 -8.64171 2.7994
O -13.7446 -6.83376 4.18346
Si -14.9633 -7.91673 3.98528
Si -12.1935 -6.35624 4.05614
O -15.5423 -7.87366 5.57207
O -14.3752 -9.44007 3.46212
O -15.9117 -6.96764 2.93707
O -11.6539 -6.20412 5.55695
O -11.4204 -7.26519 2.99586
O -12.1626 -5.08941 3.07785
O -12.7471 -8.52041 12.2601
Si -14.3024 -9.03287 12.4177
Si -11.5656 -7.39433 12.274
O -14.4233 -5.25244 13.6581
Si -15.7557 -6.19199 13.4599
Si -12.8284 -4.95178 13.5307
O -16.3263 -6.08435 15.0467
O -15.342 -7.77169 12.9369
O -16.5916 -5.14254 12.4117
O -12.2753 -4.86086 15.0316
O -12.1622 -5.94179 12.4705
O -12.6556 -3.69631 12.5526
O -10.5309 -11.1422 8.04829
Si -11.9331 -11.988 8.20643
Si -9.62955 -9.7815 8.06265
O -12.8924 -8.32961 9.44686
Si -13.9824 -9.54207 9.24885
Si -11.4045 -7.68154 9.31965
O -14.5625 -9.56414 10.8356
O -13.2275 -10.99 8.72569
O -15.0312 -8.70511 8.20077
O -10.8856 -7.46969 10.8206
O -10.5342 -8.498 8.25932
O -11.5157 -6.41917 8.34146
O -7.78756 -13.2055 3.83734
Si -8.9662 -14.3423 3.99543
Si -7.21089 -11.6785 3.85157
O -10.7143 -10.9885 5.2354
Si -11.5077 -12.4129 5.03767
Si -9.40805 -10.0252 5.10829
O -12.0685 -12.5636 6.62437
O -10.45 -13.657 4.51461
O -12.7165 -11.8304 3.98968
O -8.94963 -9.70331 6.60932
O -8.37722 -10.6271 4.04842
O -9.79826 -8.81918 4.13049
O -9.21707 -12.25 13.312
Si -10.5154 -13.2479 13.4702
Si -8.47311 -10.7972 13.3264
O -11.8777 -9.71996 14.7104
Si -12.8253 -11.0467 14.5125
Si -10.4718 -8.90888 14.5835
O -13.3995 -11.1336 16.0992
O -11.9133 -12.4012 13.9895
O -13.9614 -10.3328 13.4645
O -9.98036 -8.64001 16.0845
O -9.5143 -9.62178 13.5237
O -10.7244 -7.66717 13.6051
O -6.25996 -13.9947 9.10124
Si -7.30404 -15.2562 9.25924
Si -5.85813 -12.4127 9.11549
O -9.41659 -12.1189 10.4996
Si -10.0454 -13.6232 10.3014
Si -8.22644 -11.0155 10.372
O -10.5858 -13.8353 11.8882
O -8.85512 -14.7411 9.77853
O -11.3117 -13.1796 9.25326
O -7.80662 -10.6438 11.8729
O -7.13505 -11.4988 9.31209
O -8.74868 -9.86084 9.39376
O -2.98867 -15.0374 4.89063
Si -3.72619 -16.4994 5.04857
Si -2.94942 -13.4057 4.90486
O -6.48469 -13.9108 6.28854
Si -6.76247 -15.5173 6.09048
Si -5.56936 -12.5706 6.16118
O -7.24209 -15.8445 7.67725
O -5.35309 -16.3423 5.5677
O -8.09554 -15.3661 5.04216
O -5.24227 -12.1151 7.66198
O -4.39825 -12.8001 5.10103
O -6.33447 -11.5605 5.18278
O 0.431919 -15.3247 59.6332
Si 0.0386569 -16.9143 59.7912
Si 0.10727 -13.7251 59.6476
O -3.22652 -15.0052 2.0778
Si -3.13998 -16.6332 1.87975
Si -2.63277 -13.4947 1.95056
O -3.53466 -17.0591 3.46653
O -1.58234 -17.1236 60.3104
O -4.47331 -16.7829 59.7851
O -2.41556 -12.9779 3.45141
O -1.43989 -13.4567 59.8441
O -3.60381 -12.6808 59.9256
O -4.65332 -14.6086 14.3651
Si -5.55006 -15.9787 14.5231
Si -4.43164 -12.9915 14.3792
O -8.00112 -13.0972 15.7632
Si -8.45714 -14.6625 15.5651
Si -6.94143 -11.8679 15.6356
O -8.97034 -14.9339 17.1519
O -7.14909 -15.6402 15.0422
O -9.76486 -14.3629 14.5168
O -6.5655 -11.4519 17.1365
O -5.80352 -12.2274 14.5754
O -7.5886 -10.7784 14.6574
O -1.28606 -15.2772 10.1544
Si -1.85528 -16.8126 10.3123
Si -1.42977 -13.6514 10.1685
O -4.88647 -14.5496 11.5521
Si -4.98254 -16.1771 11.3542
Si -4.12685 -13.1154 11.4248
O -5.42244 -16.5562 12.941
O -3.48957 -16.8389 10.8313
O -6.32417 -16.1762 10.3059
O -3.85294 -12.6264 12.9258
O -2.93741 -13.2121 10.3647
O -5.00043 -12.1973 10.4467
O 2.14505 -15.1798 5.94346
Si 1.93226 -16.8035 6.10142
Si 1.64362 -13.6265 5.95763
O -1.5258 -15.2715 7.34142
Si -1.25774 -16.8798 7.14352
Si -1.10496 -13.704 7.21427
O -1.6022 -17.3472 8.73025
O 0.344928 -17.1928 6.62058
O -2.56602 -17.1778 6.09543
O -0.946908 -13.1665 8.71523
O 0.0761913 -13.5323 6.15434
O -2.16148 -13.0042 6.23605
O 5.46914 -14.3216 1.73239
Si 5.62287 -15.9519 1.89039
Si 4.63429 -12.9191 1.74677
O 1.91029 -15.2282 3.13073
Si 2.5298 -16.7363 2.93263
Si 1.97188 -13.6064 3.00328
O 2.29797 -17.2684 4.51944
O 4.16195 -16.6847 2.40953
O 1.32063 -17.3178 1.88446
O 2.00652 -13.0468 4.50411
O 3.08531 -13.1771 1.94305
O 0.786311 -13.1586 2.02512
O 3.83124 -14.8438 11.2074
Si 3.8015 -16.481 11.3651
Si 3.15897 -13.3564 11.2215
O 0.193699 -15.346 12.6053
Si 0.640139 -16.914 12.4073
Si 0.436293 -13.7412 12.4781
O 0.350032 -17.4171 13.994
O 2.26779 -17.0457 11.8844
O -0.626451 -17.3568 11.3591
O 0.532855 -13.1892 13.979
O 1.59082 -13.4383 11.4182
O -0.691876 -13.1641 11.4998
O 7.03871 -13.619 6.9962
Si 7.37371 -15.2219 7.15408
Si 6.05189 -12.3189 7.01036
O 3.60338 -14.9184 8.39468
Si 4.3878 -16.3477 8.19639
Si 3.48317 -13.2999 8.26716
O 4.21687 -16.9024 9.7832
O 6.00396 -16.1136 7.67337
O 3.25136 -17.0609 7.1482
O 3.4548 -12.7398 9.76795
O 4.54164 -12.749 7.20685
O 2.25513 -12.9876 7.28877
O 9.89145 -11.7102 2.7849
Si 10.5752 -13.1982 2.94286
Si 8.64029 -10.662 2.79925
O 6.83255 -13.7417 4.18326
Si 7.9153 -14.9607 3.98526
Si 6.35482 -12.1906 4.05606
O 7.87237 -15.5398 5.57199
O 9.43866 -14.3727 3.46205
O 6.96616 -15.9091 2.93715
O 6.20262 -11.6514 5.55702
O 7.26336 -11.4169 2.99588
O 5.08778 -12.1602 3.0781
O 8.51878 -12.7444 12.2601
Si 9.03133 -14.2996 12.4178
Si 7.39285 -11.5627 12.2742
O 5.25106 -14.4204 13.6581
Si 6.19051 -15.7529 13.46
Si 4.95033 -12.8255 13.531
O 6.08292 -16.3236 15.0467
O 7.77025 -15.3393 12.937
O 5.14118 -16.589 12.4118
O 4.85923 -12.2727 15.0319
O 5.94002 -12.1586 12.4709
O 3.69495 -12.6529 12.5526
O 11.1404 -10.5289 8.04822
Si 11.9865 -11.9308 8.2065
Si 9.77985 -9.62722 8.06276
O 8.32816 -12.8898 9.44707
Si 9.54052 -13.9799 9.24899
Si 7.67976 -11.4019 9.31982
O 9.56258 -14.5599 10.8358
O 10.9885 -13.2251 8.7258
O 8.70373 -15.0288 8.2009
O 7.46797 -10.8829 10.8207
O 8.49592 -10.5313 8.25963
O 6.41745 -11.5137 8.34156
O 13.2041 -7.7852 3.83729
Si 14.3409 -8.96383 3.99549
Si 11.6771 -7.20871 3.85177
O 10.9871 -10.7122 5.23566
Si 12.4116 -11.5054 5.03773
Si 10.0239 -9.40594 5.10846
O 12.5622 -12.0662 6.62443
O 13.6556 -10.4476 4.5147
O 11.8289 -12.714 3.98964
O 9.70183 -8.94737 6.60939
O 10.6258 -8.37522 4.04856
O 8.81788 -9.79572 4.13046
O 12.2496 -9.21454 13.3122
Si 13.2471 -10.5132 13.4702
Si 10.7967 -8.47067 13.3263
O 9.71888 -11.8751 14.7105
Si 11.0455 -12.8228 14.5125
Si 8.90811 -10.469 14.5834
O 11.1323 -13.397 16.0992
O 12.4001 -11.9109 13.9895
O 10.3314 -13.9588 13.4645
O 8.63917 -9.97753 16.0844
O 9.62159 -9.51225 13.5233
O 7.66622 -10.7213 13.6051
O 13.9939 -6.25768 9.10104
Si 15.2552 -7.30191 9.25916
Si 12.4119 -5.85614 9.11531
O 12.1179 -9.41479 10.4994
Si 13.6222 -10.0434 10.3014
Si 11.0147 -8.22445 10.3718
O 13.8344 -10.5837 11.8882
O 14.7401 -8.85302 9.77835
O 13.1783 -11.3096 9.25322
O 10.6434 -7.80423 11.8727
O 11.4987 -7.13368 9.31163
O 9.85974 -8.74632 9.39381
O 15.0359 -2.98621 4.89058
Si 16.4979 -3.72379 5.04848
Si 13.4042 -2.94678 4.90475
O 13.9094 -6.48209 6.2883
Si 15.5159 -6.76003 6.0904
Si 12.5692 -5.56675 6.16104
O 15.8433 -7.23976 7.67708
O 16.3409 -5.35071 5.56754
O 15.3648 -8.09312 5.04212
O 12.1138 -5.24007 7.66198
O 12.7981 -4.39542 5.101
O 11.5591 -6.33219 5.18292
O 15.3239 0.43494 59.6336
Si 16.9134 0.0412123 59.7913
Si 13.7244 0.11019 59.6476
O 15.0039 -3.22395 2.07782
Si 16.632 -3.13746 1.87975
Si 13.4935 -2.62993 1.95049
O 17.0577 -3.53221 3.46652
O 17.1224 -1.57982 60.3105
O 16.7815 -4.4708 59.7851
O 12.9767 -2.41262 3.45132
O 13.4564 -1.43707 59.844
O 12.6794 -3.60076 59.9255
O 14.607 -4.65096 14.3652
Si 15.9772 -5.54759 14.5231
Si 12.9899 -4.42901 14.3793
O 13.0958 -7.99843 15.7633
Si 14.6611 -8.45463 15.5652
Si 11.8665 -6.93885 15.6358
O 14.9325 -8.96791 17.1519
O 15.6388 -7.14659 15.0424
O 14.3619 -9.76244 14.5169
O 11.4502 -6.56328 17.1367
O 12.2253 -5.80055 14.5758
O 10.7774 -7.58626 14.6573
O 15.2759 -1.28418 10.1543
Si 16.8114 -1.85313 10.3123
Si 13.6501 -1.4279 10.1687
O 14.5483 -4.88428 11.5522
Si 16.1759 -4.98032 11.3543
Si 13.1139 -4.12497 11.4249
O 16.5548 -5.42016 12.9411
O 16.8377 -3.48741 10.8313
O 16.1751 -6.32201 10.306
O 12.6249 -3.85072 12.9257
O 13.2106 -2.93549 10.3648
O 12.1961 -4.99874 10.4466
O 15.1784 2.14735 20.682
Si 16.8021 1.93461 20.8399
Si 13.6252 1.64589 20.6963
O 15.2703 -1.5236 22.08
Si 16.8785 -1.25545 21.8819
Si 13.7028 -1.10277 21.9529
O 17.3459 -1.6 23.4687
O 17.1914 0.347255 21.359
O 17.1765 -2.56366 20.8337
O 13.1652 -0.944906 23.4538
O 13.5312 0.0784542 20.893
O 13.0028 -2.15888 20.9744
O 14.3202 5.47165 16.4709
Si 15.9505 5.62534 16.6288
Si 12.9177 4.63679 16.4852
O 15.2268 1.91295 17.8694
Si 16.735 2.53229 17.6711
Si 13.605 1.97448 17.742
O 17.2671 2.30035 19.2579
O 16.6834 4.16447 17.1481
O 17.3167 1.3232 16.623
O 13.0454 2.00883 19.2428
O 13.1753 3.08777 16.6817
O 13.1576 0.78895 16.7636
O 14.8428 3.83338 25.9456
Si 16.48 3.80376 26.1035
Si 13.3556 3.16088 25.9599
O 15.3453 0.195605 27.3438
Si 16.9133 0.642339 27.1457
Si 13.7405 0.438255 27.2165
O 17.4163 0.352425 28.7325
O 17.0448 2.26998 26.6226
O 17.3558 -0.624366 26.0975
O 13.1886 0.535463 28.7174
O 13.4382 1.59276 26.1564
O 13.1631 -0.689937 26.2384
O 13.6174 7.04063 21.7347
Si 15.2202 7.37585 21.8925
Si 12.3171 6.05405 21.7488
O 14.9167 3.60584 23.133
Si 16.3461 4.39012 22.9348
Si 13.2982 3.48547 23.0057
O 16.9011 4.2193 24.5216
O 16.1121 6.00625 22.4118
O 17.0594 3.25372 21.8866
O 12.7385 3.45673 24.5066
O 12.7465 4.54362 21.9455
O 12.9862 2.2573 22.0274
O 11.7089 9.89403 17.5233
Si 13.1968 10.5777 17.6812
Si 10.6607 8.64282 17.5376
O 13.7403 6.83493 18.9217
Si 14.9592 7.91773 18.7237
Si 12.1892 6.35734 18.7945
O 15.5382 7.87462 20.3105
O 14.3713 9.44113 18.2005
O 15.9077 6.96867 17.6756
O 11.6498 6.20506 20.2954
O 11.4158 7.266 17.7342
O 12.1586 5.0904 17.8164
O 12.7432 8.52074 26.9984
Si 14.2984 9.03349 27.1561
Si 11.5616 7.39469 27.0124
O 14.4193 5.25329 28.3966
Si 15.7518 6.19277 28.1984
Si 12.8245 4.9523 28.2693
O 16.3223 6.08528 29.7852
O 15.3381 7.77243 27.6753
O 16.5879 5.14341 27.1503
O 12.2714 4.86145 29.7702
O 12.1577 5.94191 27.2091
O 12.6522 3.69674 27.2912
O 10.5272 11.1429 22.7867
Si 11.9292 11.9888 22.9448
Si 9.62552 9.78229 22.801
O 12.8882 8.33045 24.1853
Si 13.9783 9.54281 23.9873
Si 11.4002 7.68221 24.0581
O 14.5585 9.56485 25.5741
O 13.2235 10.9908 23.4642
O 15.0272 8.70592 22.9393
O 10.8815 7.47014 25.5591
O 10.5296 8.49841 22.9979
O 11.5118 6.41987 23.0799
O 7.78357 13.2066 18.5757
Si 8.96233 14.3433 18.7337
Si 7.20723 11.6796 18.5899
O 10.7108 10.9896 19.974
Si 11.504 12.4141 19.776
Si 9.40447 10.0265 19.8466
O 12.0647 12.5645 21.3628
O 10.4461 13.658 19.253
O 12.7127 11.8315 18.728
O 8.94576 9.70443 21.3475
O 8.37417 10.6288 18.7865
O 9.79426 8.82044 18.8686
O 9.21328 12.2512 28.0504
Si 10.5117 13.249 28.2085
Si 8.46949 10.7983 28.0648
O 11.8741 9.72085 29.4486
Si 12.8216 11.0477 29.2508
Si 10.4681 8.90993 29.3217
O 13.3957 11.1346 30.8376
O 11.9096 12.4021 28.7278
O 13.9576 10.3336 28.2028
O 9.97641 8.64136 30.8226
O 9.51125 9.6234 28.2617
O 10.7204 7.66799 28.3435
O 6.25601 13.9956 23.8393
Si 7.30011 15.2571 23.9976
Si 5.85421 12.4136 23.8538
O 9.41294 12.1198 25.2378
Si 10.0416 13.6241 25.0398
Si 8.2226 11.0165 25.1104
O 10.582 13.8364 26.6265
O 8.85122 14.742 24.5169
O 11.3078 13.1805 23.9916
O 7.80286 10.6449 26.6112
O 7.13131 11.4999 24.0503
O 8.74458 9.86181 24.1321
O 2.98483 15.0379 19.629
Si 3.72219 16.5 19.7869
Si 2.94528 13.4062 19.6433
O 6.48046 13.9114 21.0268
Si 6.75837 15.518 20.8288
Si 5.56529 12.5711 20.8994
O 7.23803 15.8452 22.4156
O 5.34904 16.343 20.306
O 8.0915 15.367 19.7805
O 5.23834 12.1157 22.4003
O 4.39391 12.8001 19.8395
O 6.3309 11.5613 19.9211
O -0.436152 15.3259 15.4183
Si -0.04267 16.9155 15.5762
Si -0.111471 13.7264 15.4325
O 3.22246 15.0059 16.8164
Si 3.13598 16.634 16.6182
Si 2.62861 13.4955 16.689
O 3.53064 17.0597 18.205
O 1.57837 17.1245 16.0953
O 4.46931 16.7835 15.5699
O 2.41121 12.9787 18.1898
O 1.43574 13.4582 15.6289
O 3.59952 12.6814 15.7104
O 4.6495 14.609 29.1035
Si 5.54612 15.9793 29.2615
Si 4.42754 12.992 29.1176
O 7.99702 13.0979 30.5013
Si 8.45318 14.6632 30.3034
Si 6.93745 11.8685 30.374
O 8.96649 14.9347 31.8901
O 7.14515 15.6409 29.7806
O 9.761 14.3639 29.2552
O 6.56175 11.4526 31.8749
O 5.79912 12.2273 29.314
O 7.58505 10.7792 29.3958
O 1.28224 15.2784 24.8929
Si 1.85149 16.8138 25.0508
Si 1.42602 13.6526 24.9071
O 4.88263 14.5505 26.2908
Si 4.9787 16.178 26.0927
Si 4.1231 13.1163 26.1633
O 5.4186 16.5569 27.6795
O 3.48578 16.8399 25.5698
O 6.32035 16.177 25.0444
O 3.84903 12.6271 27.6641
O 2.93369 13.2134 25.1031
O 4.99653 12.1982 25.185
O -2.14915 15.1807 20.6822
Si -1.93617 16.8043 20.8399
Si -1.6475 13.6275 20.6963
O 1.52206 15.2726 22.08
Si 1.25389 16.8808 21.8819
Si 1.10116 13.7051 21.9528
O 1.59841 17.3482 23.4687
O -0.348827 17.1937 21.359
O 2.56212 17.1786 20.8337
O 0.94306 13.1676 23.4538
O -0.0800269 13.5338 20.8929
O 2.15737 13.0049 20.9745
O -5.47305 14.3224 16.4709
Si -5.62681 15.9528 16.6288
Si -4.6383 12.9198 16.4851
O -1.91448 15.2289 17.8693
Si -2.53379 16.7371 17.6712
Si -1.97598 13.6071 17.7419
O -2.30188 17.2693 19.2579
O -4.16595 16.6857 17.1481
O -1.32467 17.3188 16.623
O -2.0103 13.0476 19.2428
O -3.08926 13.1773 16.6817
O -0.790405 13.1596 16.7636
O -3.8349 14.8448 25.9455
Si -3.80527 16.4821 26.1035
Si -3.16243 13.3576 25.9599
O -0.19735 15.3473 27.3439
Si -0.643937 16.9154 27.1457
Si -0.43994 13.7426 27.2166
O -0.354047 17.4183 28.7325
O -2.27153 17.0469 26.6226
O 0.622718 17.358 26.0977
O -0.536913 13.1906 28.7175
O -1.5943 13.44 26.1564
O 0.688269 13.1654 26.2384
O -7.0423 13.6195 21.7347
Si -7.37749 15.2224 21.8925
Si -6.05576 12.3192 21.7487
O -3.60748 14.9188 23.1329
Si -4.39169 16.3482 22.9348
Si -3.48711 13.3002 23.0056
O -4.22084 16.9031 24.5215
O -6.00786 16.1143 22.4118
O -3.25531 17.0616 21.8866
O -3.45838 12.7405 24.5066
O -4.54522 12.7483 21.9454
O -2.25884 12.9883 22.0274
O -9.89601 11.7113 17.5234
Si -10.5795 13.1993 17.6813
Si -8.64476 10.6632 17.5375
O -6.83656 13.7428 18.9218
Si -7.91938 14.9617 18.7237
Si -6.35918 12.1917 18.7944
O -7.87624 15.5406 20.3105
O -9.44279 14.3737 18.2005
O -6.9702 15.91 17.6755
O -6.20696 11.6521 20.2952
O -7.26822 11.4188 17.734
O -5.09222 12.1608 17.8163
O -8.52227 12.7455 26.9984
Si -9.03506 14.3007 27.1561
Si -7.39629 11.5638 27.0125
O -5.2548 14.4215 28.3965
Si -6.19431 15.754 28.1984
Si -4.95386 12.8267 28.2693
O -6.08675 16.3246 29.7851
O -7.77401 15.3404 27.6753
O -5.14493 16.5901 27.1502
O -4.86302 12.2736 29.7701
O -5.94353 12.1598 27.2091
O -3.69833 12.6542 27.2911
O -11.1443 10.5294 22.7868
Si -11.9903 11.9315 22.9449
Si -9.78381 9.62771 22.8012
O -8.33195 12.8904 24.1853
Si -9.54436 13.9805 23.9873
Si -7.68371 11.4025 24.0583
O -9.56634 14.5607 25.5741
O -10.9924 13.2257 23.4643
O -8.70759 15.0294 22.9392
O -7.47163 10.8837 25.5592
O -8.49993 10.5318 22.9982
O -6.42154 11.5139 23.0798
O -13.2079 7.78603 18.5757
Si -14.3447 8.96462 18.7339
Si -11.6809 7.20951 18.5902
O -10.9911 10.7131 19.9741
Si -12.4155 11.5062 19.7761
Si -10.0278 9.40683 19.8468
O -12.566 12.067 21.3629
O -13.6595 10.4484 19.2532
O -11.8332 12.715 18.7281
O -9.70566 8.94811 21.3477
O -10.6298 8.37608 18.787
O -8.82198 9.7968 18.8686
O -12.2533 9.21554 28.0505
Si -13.2508 10.5141 28.2086
Si -10.8003 8.4719 28.0647
O -9.72255 11.8766 29.4486
Si -11.0495 12.8241 29.2508
Si -8.91193 10.4705 29.3216
O -11.1364 13.3982 30.8376
O -12.4039 11.912 28.7278
O -10.3352 13.96 28.2028
O -8.64347 9.97884 30.8226
O -9.62558 9.51397 28.2614
O -7.6698 10.7227 28.3436
O -13.9977 6.25834 23.8396
Si -15.259 7.30259 23.9977
Si -12.4157 5.85654 23.8538
O -12.1217 9.41519 25.2378
Si -13.6259 10.044 25.0398
Si -11.0185 8.22484 25.1104
O -13.8382 10.5844 26.6266
O -14.7439 8.85364 24.5169
O -13.1821 11.3101 23.9917
O -10.647 7.80509 26.6113
O -11.5021 7.1337 24.0504
O -9.86361 8.74663 24.1321
O -15.0402 2.98705 19.6291
Si -16.5022 3.72471 19.787
Si -13.4085 2.94775 19.6433
O -13.9134 6.48306 21.0268
Si -15.5199 6.76093 20.8289
Si -12.5732 5.56767 20.8995
O -15.8472 7.24057 22.4156
O -16.345 5.35162 20.3061
O -15.3686 8.09397 19.7805
O -12.118 5.24063 22.4003
O -12.8026 4.39649 19.8394
O -11.563 6.33302 19.9214
O -15.3278 -0.433735 15.4183
Si -16.9173 -0.0401684 15.5761
Si -13.7283 -0.108805 15.4325
O -15.008 3.22526 16.8164
Si -16.6361 3.13856 16.6182
Si -13.4977 2.63129 16.689
O -17.0619 3.53319 18.205
O -17.1264 1.5809 16.0952
O -16.7854 4.47192 15.5699
O -12.981 2.41371 18.1899
O -13.4607 1.43853 15.6288
O -12.6833 3.60198 15.7105
O -14.6106 4.65219 29.1035
Si -15.9809 5.5486 29.2616
Si -12.9935 4.43011 29.1177
O -13.0995 7.99929 30.5016
Si -14.6647 8.45553 30.3036
Si -11.87 6.93989 30.3742
O -14.9362 8.96873 31.8903
O -15.6425 7.14759 29.7807
O -14.3655 9.76339 29.2554
O -11.4539 6.56421 31.8751
O -12.2285 5.80145 29.3142
O -10.7809 7.58773 29.3959
O -15.28 1.28479 24.893
Si -16.8155 1.85393 25.0508
Si -13.6542 1.42849 24.9071
O -14.5523 4.8849 26.2909
Si -16.1798 4.9811 26.0928
Si -13.1179 4.12548 26.1634
O -16.5586 5.42104 27.6796
O -16.8417 3.48819 25.5699
O -16.1789 6.32273 25.0444
O -12.6287 3.85147 27.6642
O -13.2148 2.9361 25.1032
O -12.2 4.99899 25.185
O -15.1825 -2.14656 20.6819
Si -16.8061 -1.93373 20.8398
Si -13.6293 -1.64495 20.6961
O -15.2745 1.52443 22.0801
Si -16.8827 1.25632 21.882
Si -13.707 1.10356 21.9529
O -17.35 1.60083 23.4687
O -17.1955 -0.346405 21.359
O -17.1807 2.56455 20.8338
O -13.1694 0.945515 23.4538
O -13.5355 -0.0774994 20.8928
O -13.0071 2.15988 20.9746
O -14.3241 -5.47055 16.4707
Si -15.9544 -5.62431 16.6287
Si -12.9215 -4.63576 16.485
O -15.2307 -1.912 17.8692
Si -16.7388 -2.5313 17.671
Si -13.6088 -1.97346 17.7417
O -17.2711 -2.29948 19.2578
O -16.6874 -4.16346 17.148
O -17.3206 -1.32216 16.623
O -13.0493 -2.00772 19.2426
O -13.1789 -3.08668 16.6815
O -13.1616 -0.787647 16.7637
O -14.8463 -3.83228 25.9455
Si -16.4836 -3.80283 26.1035
Si -13.3589 -3.16003 25.9598
O -15.3489 -0.194987 27.3437
Si -16.9169 -0.641535 27.1457
Si -13.7441 -0.43757 27.2166
O -17.4201 -0.351537 28.7325
O -17.0485 -2.2692 26.6227
O -17.3597 0.62512 26.0976
O -13.1923 -0.534254 28.7176
O -13.4407 -1.5919 26.1566
O -13.167 0.690723 26.2385
O -13.6213 -7.03971 21.7347
Si -15.2241 -7.37497 21.8925
Si -12.321 -6.05317 21.7488
O -14.9205 -3.60494 23.133
Si -16.3499 -4.3892 22.9347
Si -13.302 -3.48448 23.0056
O -16.9047 -4.21827 24.5215
O -16.1159 -6.00532 22.4117
O -17.0633 -3.25287 21.8866
O -12.7421 -3.45576 24.5064
O -12.7501 -4.54268 21.9455
O -12.9901 -2.25633 22.0272
O -11.7127 -9.89307 17.5235
Si -13.2007 -10.5767 17.6813
Si -10.6648 -8.64171 17.5378
O -13.7446 -6.83376 18.9219
Si -14.9633 -7.91673 18.7237
Si -12.1935 -6.35624 18.7945
O -15.5423 -7.87366 20.3105
O -14.3752 -9.44007 18.2005
O -15.9117 -6.96764 17.6755
O -11.6539 -6.20412 20.2954
O -11.4204 -7.26519 17.7343
O -12.1626 -5.08941 17.8163
O -12.7471 -8.52041 26.9985
Si -14.3024 -9.03287 27.1561
Si -11.5656 -7.39433 27.0124
O -14.4233 -5.25244 28.3965
Si -15.7557 -6.19199 28.1983
Si -12.8284 -4.95178 28.2691
O -16.3263 -6.08435 29.7851
O -15.342 -7.77169 27.6753
O -16.5916 -5.14254 27.1501
O -12.2753 -4.86086 29.77
O -12.1622 -5.94179 27.2089
O -12.6556 -3.69631 27.291
O -10.5309 -11.1422 22.7867
Si -11.9331 -11.988 22.9448
Si -9.62955 -9.7815 22.801
O -12.8924 -8.32961 24.1853
Si -13.9824 -9.54207 23.9872
Si -11.4045 -7.68154 24.058
O -14.5625 -9.56414 25.574
O -13.2275 -10.99 23.4641
O -15.0312 -8.70511 22.9392
O -10.8856 -7.46969 25.559
O -10.5342 -8.498 22.9977
O -11.5157 -6.41917 23.0799
O -7.78756 -13.2055 18.5757
Si -8.9662 -14.3423 18.7338
Si -7.21089 -11.6785 18.59
O -10.7143 -10.9885 19.9738
Si -11.5077 -12.4129 19.7761
Si -9.40805 -10.0252 19.8467
O -12.0685 -12.5636 21.3628
O -10.45 -13.657 19.253
O -12.7165 -11.8304 18.7281
O -8.94963 -9.70331 21.3477
O -8.37722 -10.6271 18.7868
O -9.79826 -8.81918 18.8689
O -9.21707 -12.25 28.0504
Si -10.5154 -13.2479 28.2086
Si -8.47311 -10.7972 28.0648
O -11.8777 -9.71996 29.4488
Si -12.8253 -11.0467 29.2509