3456
 Atoms. Timestep: 14088
O 31.2492 63.7971 2.54372
Si 32.2016 65.1397 2.54375
Si 30.7366 62.2368 2.54375
O 34.4847 62.1151 2.54355
Si 35.0367 63.6659 2.54362
Si 33.5016 60.7995 2.54355
O 35.9668 63.729 3.90779
O 33.8128 64.7754 2.54371
O 35.9666 63.729 1.17933
O 33.8647 59.9913 3.90786
O 31.9182 61.1317 2.54335
O 33.8651 59.9911 1.17944
O 27.0069 65.6963 -0.184766
Si 27.8696 67.0983 -0.184658
Si 26.5975 64.1058 -0.18469
O 30.3454 64.2298 -0.184546
Si 30.7951 65.8133 -0.184666
Si 29.4507 62.8526 -0.184654
O 31.7191 65.9372 1.17949
O 29.5013 66.8403 -0.184551
O 31.719 65.9372 3.90802
O 29.866 62.0698 1.17965
O 27.8489 63.0805 -0.184597
O 29.8663 62.0697 3.90805
O 4.45239 70.8686 2.54459
Si 4.82028 72.4731 2.54459
Si 4.57453 69.2309 2.54458
O 8.08501 70.5486 2.54449
Si 8.00317 72.1927 2.54452
Si 7.67877 68.9574 2.54449
O 8.83857 72.6059 3.90875
O 6.44859 72.7513 2.54452
O 8.83859 72.6059 1.1803
O 8.32292 68.3488 3.90878
O 6.08841 68.6603 2.54431
O 8.32331 68.3487 1.18042
O -0.193229 71.0063 -0.184277
Si 0.0687567 72.6314 -0.184072
Si 0.0358741 69.3801 -0.184114
O 3.45259 70.924 -0.183736
Si 3.26329 72.5592 -0.183845
Si 3.1512 69.3096 -0.183846
O 4.06991 73.0262 1.18044
O 1.67551 73.0151 -0.184068
O 4.07004 73.0262 3.90881
O 3.83371 68.7444 1.18039
O 1.58371 68.9094 -0.184126
O 3.83388 68.7444 3.90886
O -23.005 67.1395 2.54236
Si -23.2807 68.7624 2.54227
Si -22.264 65.6739 2.54223
O -19.5281 68.2393 2.54254
Si -20.2344 69.7261 2.54247
Si -19.2928 66.614 2.54232
O -19.6219 70.4289 3.90658
O -21.8843 69.6447 2.54239
O -19.622 70.4288 1.1783
O -18.4642 66.2998 3.90663
O -20.6471 65.7287 2.54195
O -18.4642 66.2999 1.17803
O -43.3808 56.1705 -0.187161
Si -27.7284 67.0855 -0.187067
Si -26.5132 64.0696 -0.186965
O -23.9494 66.8064 -0.186367
Si -24.751 68.2441 -0.186208
Si -23.6089 65.1997 -0.186231
O -24.1856 68.9851 1.17798
O -26.392 68.0562 -0.186515
O -24.1855 68.9852 3.90657
O -22.7619 64.94 1.17825
O -24.9031 64.2287 -0.186802
O -22.761 64.9403 3.90661
O -46.968 53.2155 2.54168
Si -47.8404 54.6114 2.54158
Si -45.7251 52.142 2.54168
O -44.1699 55.554 2.54116
Si -45.3888 56.6603 2.5415
Si -43.334 54.1404 2.54126
O -45.0893 57.5428 3.90574
O -46.884 55.9581 2.54165
O -45.0893 57.5428 1.17725
O -42.4477 54.1646 3.90521
O -44.2503 52.807 2.54204
O -42.4485 54.164 1.17681
O -61.6214 35.3082 -0.184901
Si -51.315 51.3674 -0.186502
Si -60.0999 34.6901 -0.185095
O -47.7148 52.5483 -0.186984
Si -49.0032 53.5728 -0.186842
Si -46.7883 51.1923 -0.186763
O -48.762 54.4733 1.17723
O -50.4491 52.7741 -0.186504
O -48.7622 54.4731 3.90576
O -45.9057 51.2746 1.17735
O -47.6148 49.8016 -0.186402
O -45.9061 51.2743 3.90575
O -63.8076 31.2065 2.54439
Si -65.1471 32.1633 2.54393
Si -62.2488 30.6894 2.54406
O -62.115 34.4368 2.54319
Si -63.6641 34.9935 2.54342
Si -60.8025 33.4497 2.54333
O -63.7244 35.9236 3.90764
O -64.7776 33.7733 2.54353
O -63.7244 35.9236 1.17918
O -59.9929 33.8104 3.90751
O -61.1399 31.8674 2.54351
O -59.993 33.8103 1.1791
O -70.4959 9.05643 -0.183731
Si -67.1204 27.8382 -0.184376
Si -68.8536 9.06794 -0.183794
O -64.2432 30.3048 -0.184528
Si -65.8254 30.7592 -0.184497
Si -62.8689 29.4058 -0.184387
O -65.9462 31.6833 1.17982
O -66.8569 29.4689 -0.184591
O -65.9462 31.6836 3.90822
O -62.0847 29.8184 1.17995
O -63.1021 27.8049 -0.184669
O -62.0844 29.8188 3.9084
O -70.9447 4.4304 2.54428
Si -72.5485 4.80099 2.54446
Si -69.3068 4.54963 2.54451
O -70.6183 8.06229 2.54447
Si -72.2625 7.98338 2.54458
Si -69.0278 7.65314 2.54462
O -72.6743 8.8196 3.9088
O -72.8238 6.42978 2.54461
O -72.6743 8.81954 1.18035
O -68.4181 8.296 3.90895
O -68.7334 6.06238 2.5442
O -68.418 8.29643 1.18053
O -71.0885 -0.214734 -0.184388
Si -72.7132 0.049824 -0.184006
Si -69.4619 0.0116316 -0.184029
O -71.0014 3.43058 -0.183906
Si -72.637 3.24418 -0.18396
Si -69.3875 3.1267 -0.183907
O -73.1028 4.05168 1.18018
O -73.095 1.65703 -0.18382
O -73.1027 4.0515 3.90865
O -68.8213 3.80794 1.1805
O -68.9892 1.55876 -0.184461
O -68.8213 3.80859 3.90887
O -70.9283 -4.85942 2.54449
Si -72.5669 -4.70212 2.54438
Si -69.3201 -4.52688 2.54449
O -71.0797 -1.21615 2.54455
Si -72.6995 -1.50957 2.54444
Si -69.4493 -1.41356 2.54443
O -73.2172 -0.73423 3.90856
O -73.0528 -3.12328 2.54465
O -73.2171 -0.734571 1.18012
O -68.9289 -0.696475 3.90872
O -68.9494 -2.95214 2.54421
O -68.929 -0.696119 1.1803
O -70.4632 -9.48385 -0.184561
Si -72.1086 -9.43413 -0.184495
Si -68.8802 -9.04632 -0.184441
O -70.8539 -5.85832 -0.184018
Si -72.4509 -6.25725 -0.184066
Si -69.2141 -5.94825 -0.18394
O -73.0183 -5.51757 1.1801
O -72.6974 -7.89068 -0.184056
O -73.0183 -5.51777 3.90853
O -68.7419 -5.19859 1.18037
O -68.6141 -7.4506 -0.18413
O -68.7419 -5.19809 3.90887
O -69.6952 -14.0675 2.54551
Si -71.3403 -14.1257 2.54399
Si -68.1444 -13.527 2.54406
O -70.3232 -10.475 2.54397
Si -71.8906 -10.9782 2.54391
Si -68.681 -10.4575 2.54399
O -72.5054 -10.2773 3.908
O -72.0291 -12.6243 2.54396
O -72.5054 -10.2778 1.17958
O -68.2591 -9.67806 3.90808
O -67.9837 -11.9173 2.54422
O -68.2591 -9.67857 1.17963
O -68.6283 -18.5907 -0.185432
Si -70.2661 -18.7569 -0.185205
Si -67.1163 -17.9497 -0.185254
O -69.4905 -15.0474 -0.186305
Si -71.0216 -15.6522 -0.184575
Si -67.8531 -14.9221 -0.184527
O -71.6807 -14.9933 1.17974
O -71.0519 -17.3039 -0.184722
O -71.6812 -14.9933 3.9082
O -67.4834 -14.1168 1.17971
O -67.0614 -16.3329 -0.18426
O -67.4829 -14.1169 3.90813
O -67.2671 -23.0344 2.54317
Si -68.8903 -23.3079 2.54347
Si -65.8004 -22.2957 2.54371
O -68.3599 -19.5553 2.5431
Si -69.8479 -20.2593 2.54322
Si -66.7342 -19.3228 2.54317
O -70.5492 -19.6449 3.90728
O -69.7698 -21.9094 2.54351
O -70.549 -19.6454 1.17886
O -66.418 -18.4945 3.90708
O -65.8517 -20.6787 2.54381
O -66.4177 -18.4956 1.17869
O -65.6168 -27.3793 -0.184583
Si -67.2186 -27.7586 -0.185212
Si -64.2016 -26.546 -0.185208
O -66.9356 -23.9795 -0.184526
Si -68.3743 -24.7795 -0.184923
Si -65.3287 -23.6408 -0.184697
O -69.1144 -24.2127 1.17922
O -68.1879 -26.421 -0.184843
O -69.1142 -24.2128 3.90765
O -65.0675 -22.794 1.17957
O -64.3591 -24.9358 -0.185083
O -65.0677 -22.7939 3.90799
O -63.6851 -31.6071 2.54341
Si -65.2587 -32.0902 2.54306
Si -62.3277 -30.6827 2.54299
O -65.224 -28.3006 2.54201
Si -66.607 -29.1932 2.54313
Si -63.6426 -27.8574 2.54314
O -67.3827 -28.676 3.90728
O -66.3135 -30.8189 2.54338
O -67.3828 -28.6764 1.17886
O -63.4378 -26.9952 3.9074
O -62.5903 -29.0863 2.54314
O -63.4375 -26.9952 1.17893
O -61.4817 -35.6991 -0.185213
Si -63.0203 -36.2843 -0.185184
Si -60.1875 -34.6881 -0.185029
O -63.2331 -32.5008 -0.185961
Si -64.5549 -33.4818 -0.18541
Si -61.6842 -31.9549 -0.185479
O -65.3627 -33.0163 1.17867
O -64.156 -35.0848 -0.185162
O -65.3626 -33.0168 3.9071
O -61.5361 -31.0811 1.17871
O -60.5538 -33.1123 -0.18533
O -61.5359 -31.0811 3.90715
O -59.0153 -39.6387 2.54291
Si -60.5124 -40.3232 2.54299
Si -57.7902 -38.5451 2.54286
O -60.9723 -36.5613 2.54355
Si -62.2271 -37.6269 2.54325
Si -59.4624 -35.9155 2.54341
O -63.0634 -37.2156 3.90752
O -61.7241 -39.2004 2.54312
O -63.0634 -37.2154 1.17906
O -59.3713 -35.0342 3.90775
O -58.2588 -36.9966 2.54312
O -59.3716 -35.0338 1.17931
O -56.2968 -43.4085 -0.185178
Si -57.7458 -44.1895 -0.185323
Si -55.146 -42.2369 -0.185412
O -58.4508 -40.4655 -0.185825
Si -59.633 -41.611 -0.185456
Si -56.9864 -39.7223 -0.185576
O -60.4945 -41.2551 1.17877
O -59.0282 -43.1482 -0.185448
O -60.4945 -41.2553 3.90713
O -56.9535 -38.8365 1.17851
O -55.7147 -40.7223 -0.185259
O -56.9532 -38.8368 3.90696
O -53.3374 -46.9918 2.54379
Si -54.7319 -47.8664 2.54342
Si -52.2658 -45.7472 2.54347
O -55.6796 -44.1965 2.54273
Si -56.7841 -45.4171 2.5431
Si -54.2671 -43.3588 2.543
O -57.667 -45.1184 3.90738
O -56.0799 -46.9114 2.54318
O -57.6672 -45.1183 1.17892
O -54.292 -42.4729 3.90715
O -52.9326 -44.2733 2.54324
O -54.2919 -42.473 1.17877
O -50.1477 -50.3725 -0.18449
Si -51.4819 -51.3367 -0.184627
Si -49.1605 -49.0601 -0.184751
O -52.6696 -47.7377 -0.185202
Si -53.6914 -49.0282 -0.185014
Si -51.3151 -46.809 -0.184972
O -54.592 -48.7882 1.17931
O -52.89 -50.4728 -0.184973
O -54.5923 -48.7881 3.90767
O -51.3982 -45.9268 1.17923
O -49.9232 -47.6335 -0.184968
O -51.3982 -45.9267 3.90773
O -46.742 -53.535 2.54445
Si -48.01 -54.5847 2.54412
Si -45.843 -52.1606 2.54414
O -49.4319 -51.0722 2.54374
Si -50.3668 -52.427 2.54382
Si -48.1414 -50.0564 2.54368
O -51.2815 -52.2471 3.90804
O -49.4719 -53.8156 2.54383
O -51.2816 -52.247 1.17967
O -48.2826 -49.1818 3.90799
O -46.6981 -50.7873 2.54376
O -48.2828 -49.1816 1.17948
O -43.1366 -56.4675 -0.183845
Si -44.3328 -57.5983 -0.184007
Si -42.3294 -55.0373 -0.18402
O -45.9814 -54.1864 -0.184394
Si -46.8257 -55.5995 -0.184289
Si -44.7605 -53.088 -0.184304
O -47.7502 -55.48 1.17991
O -45.8419 -56.9266 -0.184189
O -47.7504 -55.4799 3.90847
O -44.9591 -52.2244 1.17998
O -43.2724 -53.7228 -0.184293
O -44.9591 -52.2243 3.90832
O -22.6844 -67.2929 2.54495
Si -23.454 -68.7481 2.54505
Si -22.3793 -65.6792 2.54506
O -26.1112 -66.0461 2.54491
Si -26.4568 -67.6556 2.54508
Si -25.3078 -64.6138 2.54521
O -27.3707 -67.8389 3.90933
O -25.099 -68.5965 2.54518
O -27.3707 -67.8389 1.18084
O -25.7729 -63.8595 3.90952
O -23.6947 -64.7372 2.54494
O -25.7732 -63.8593 1.18111
O -18.2311 -68.6237 -0.18346
Si -18.9037 -70.1262 -0.183031
Si -18.0324 -66.9935 -0.18293
O -21.7322 -67.6042 -0.183276
Si -21.9716 -69.2328 -0.183357
Si -21.0243 -66.1223 -0.183368
O -22.8717 -69.4759 1.18075
O -20.5551 -70.0827 -0.183099
O -22.8714 -69.4759 3.90922
O -21.538 -65.4002 1.18091
O -19.4065 -66.1397 -0.18356
O -21.5382 -65.4002 3.90928
O 4.80591 -70.7996 2.54462
Si 4.65141 -72.4385 2.54495
Si 4.47031 -69.192 2.54475
O 1.16265 -70.9587 2.54593
Si 1.45924 -72.5779 2.54558
Si 1.35697 -69.328 2.54584
O 0.685515 -73.0973 3.90987
O 3.07363 -72.9277 2.54519
O 0.685169 -73.0973 1.18149
O 0.638898 -68.8093 3.91038
O 2.89462 -68.8249 2.54498
O 0.637772 -68.8093 1.18189
O 27.3254 -65.4749 -0.184945
Si 9.38228 -71.9725 -0.183535
Si 8.98991 -68.7447 -0.183337
O 5.80461 -70.7234 -0.183279
Si 6.20613 -72.3198 -0.183469
Si 5.89202 -69.0834 -0.183665
O 5.46759 -72.8885 1.1807
O 7.83989 -72.5637 -0.18344
O 5.46775 -72.8885 3.90912
O 5.14097 -68.6126 1.1805
O 7.39363 -68.4811 -0.183763
O 5.14105 -68.6127 3.90898
O 31.5536 -63.5448 2.54329
Si 32.0369 -65.1185 2.54334
Si 30.6296 -62.1871 2.54333
O 28.2471 -65.0826 2.54349
Si 29.1395 -66.4659 2.5435
Si 27.804 -63.5013 2.54347
O 28.6221 -67.2413 3.90777
O 30.7653 -66.173 2.54338
O 28.622 -67.2413 1.17931
O 26.9414 -63.2961 3.90747
O 29.0332 -62.4493 2.54384
O 26.9421 -63.2958 1.17908
O 50.3272 -50.0147 -0.184711
Si 36.2312 -62.8796 -0.185112
Si 34.6352 -60.0469 -0.184962
O 32.4474 -63.0927 -0.185061
Si 33.4285 -64.4145 -0.18509
Si 31.9019 -61.5437 -0.185108
O 32.9632 -65.2223 1.17911
O 35.0315 -64.0153 -0.185094
O 32.9633 -65.2223 3.90754
O 31.0279 -61.3956 1.17897
O 33.0594 -60.4134 -0.184893
O 31.0284 -61.3954 3.90739
O 53.4992 -46.6178 2.54414
Si 54.5461 -47.8881 2.54388
Si 52.1273 -45.715 2.54401
O 51.0292 -49.3002 2.54335
Si 52.3817 -50.2385 2.54359
Si 50.0163 -48.0074 2.54355
O 52.1999 -51.1524 3.90782
O 53.7729 -49.3478 2.54373
O 52.1998 -51.1526 1.17943
O 49.141 -48.147 3.90773
O 50.7514 -46.5661 2.54371
O 49.1411 -48.1468 1.17925
O 65.6976 -26.954 -0.184326
Si 57.5719 -44.2216 -0.184162
Si 64.1083 -26.5399 -0.184039
O 54.1538 -45.8593 -0.184655
Si 55.5646 -46.7075 -0.184544
Si 53.0588 -44.6353 -0.184433
O 55.4421 -47.6314 1.17971
O 56.8951 -45.7284 -0.184358
O 55.4422 -47.6315 3.90805
O 52.1945 -44.8311 1.17986
O 53.699 -43.1495 -0.184679
O 52.1942 -44.8314 3.90837
O 67.3281 -22.6011 2.54508
Si 68.7814 -23.3741 2.54508
Si 65.7151 -22.2922 2.54523
O 66.0732 -26.0249 2.54478
Si 67.6818 -26.3745 2.54444
Si 64.6427 -25.2181 2.54442
O 67.8629 -27.2892 3.90854
O 68.6259 -25.0188 2.54472
O 67.863 -27.2888 1.18011
O 63.8872 -25.6819 3.90846
O 64.7699 -23.6053 2.54498
O 63.8875 -25.6813 1.18001
O 71.0528 0.237383 -0.184256
Si 70.1701 -18.8265 -0.183814
Si 69.4263 0.0102429 -0.184082
O 67.6417 -21.6495 -0.18325
Si 69.2697 -21.8926 -0.183333
Si 66.1615 -20.9382 -0.183205
O 69.5107 -22.7931 1.18093
O 70.1228 -20.4778 -0.183581
O 69.5105 -22.7935 3.90947
O 65.4383 -21.4501 1.18112
O 66.1826 -19.3205 -0.18357
O 65.4381 -21.4505 3.90953
O 70.8909 4.88243 2.54429
Si 72.5295 4.72533 2.54428
Si 69.2828 4.5492 2.54432
O 71.0435 1.23881 2.54445
Si 72.6632 1.53275 2.54435
Si 69.4132 1.43577 2.54436
O 73.1812 0.757659 3.90857
O 73.0159 3.14663 2.54428
O 73.1811 0.757655 1.18014
O 68.8931 0.718208 3.90859
O 68.9128 2.97426 2.54411
O 68.8931 0.71808 1.18018
O 70.4253 9.50674 -0.184727
Si 72.0707 9.45748 -0.184491
Si 68.8424 9.06896 -0.184566
O 70.8164 5.881 -0.184146
Si 72.4133 6.28052 -0.184163
Si 69.1766 5.97073 -0.184122
O 72.9807 5.5411 1.18013
O 72.6595 7.91402 -0.184269
O 72.9808 5.54096 3.90849
O 68.7045 5.22095 1.18022
O 68.5765 7.47315 -0.184736
O 68.7045 5.22029 3.90874
O 69.6571 14.0906 2.54474
Si 71.3022 14.1493 2.54406
Si 68.1063 13.5501 2.54425
O 70.2852 10.4984 2.54398
Si 71.8526 11.0016 2.54393
Si 68.643 10.4805 2.54387
O 72.4674 10.301 3.90811
O 71.991 12.6478 2.54397
O 72.4674 10.3011 1.17965
O 68.2212 9.70126 3.90817
O 67.9457 11.9403 2.54335
O 68.2213 9.70089 1.17976
O 68.5894 18.614 -0.184663
Si 70.2272 18.7805 -0.184763
Si 67.0774 17.9732 -0.18487
O 69.4522 15.0714 -0.184571
Si 70.9833 15.6759 -0.184418
Si 67.8147 14.9456 -0.184216
O 71.6427 15.0169 1.17981
O 71.0134 17.3275 -0.184589
O 71.6429 15.0169 3.90829
O 67.445 14.1407 1.18034
O 67.0228 16.3563 -0.185008
O 67.4451 14.1395 3.90875
O 67.2273 23.058 2.54343
Si 68.8506 23.3313 2.54381
Si 65.7605 22.3195 2.54375
O 68.3204 19.579 2.54358
Si 69.8084 20.2828 2.54365
Si 66.6946 19.3466 2.54355
O 70.5098 19.6687 3.90784
O 69.7302 21.933 2.54363
O 70.5098 19.6687 1.17949
O 66.3787 18.5187 3.90783
O 65.812 20.7025 2.54364
O 66.3787 18.5186 1.17931
O 65.579 27.4037 -0.185181
Si 67.1809 27.7826 -0.184886
Si 64.1635 26.5709 -0.185001
O 66.8961 24.0034 -0.184366
Si 68.3349 24.803 -0.1846
Si 65.289 23.665 -0.184653
O 69.0748 24.2362 1.17966
O 68.1495 26.4445 -0.184852
O 69.0748 24.236 3.90806
O 65.0277 22.8181 1.17953
O 64.32 24.9606 -0.184594
O 65.0278 22.8181 3.90799
O 63.6508 31.6333 2.5437
Si 65.2246 32.1158 2.5436
Si 62.293 30.7095 2.54358
O 65.1872 28.3257 2.54347
Si 66.5707 29.2177 2.54355
Si 63.6057 27.8831 2.54344
O 67.3459 28.7002 3.90783
O 66.2785 30.8436 2.54348
O 67.3459 28.7001 1.17933
O 63.4001 27.0206 3.9074
O 62.5544 29.1129 2.54407
O 63.3999 27.0213 1.17907
O 61.4495 35.7267 -0.185074
Si 62.9883 36.3113 -0.184936
Si 60.1549 34.7162 -0.184847
O 63.1994 32.5273 -0.184828
Si 64.5216 33.5079 -0.184848
Si 61.6502 31.9822 -0.184852
O 65.329 33.0422 1.17945
O 64.1234 35.1111 -0.185082
O 65.3291 33.042 3.90785
O 61.5017 31.1082 1.17921
O 60.5204 33.1402 -0.184345
O 61.5014 31.1087 3.90767
O 58.9853 39.6679 2.54278
Si 60.4825 40.352 2.54327
Si 57.7599 38.5745 2.54317
O 60.9405 36.5895 2.54378
Si 62.1956 37.6545 2.54351
Si 59.4304 35.9439 2.5436
O 63.0318 37.2426 3.90777
O 61.6935 39.2284 2.54346
O 63.0318 37.2425 1.17931
O 59.3393 35.062 3.90759
O 58.2275 37.0257 2.54384
O 59.339 35.0627 1.17922
O 56.267 43.4378 -0.186944
Si 57.7161 44.2189 -0.185281
Si 55.1163 42.2662 -0.18526
O 58.4212 40.495 -0.18493
Si 59.6035 41.6403 -0.185146
Si 56.9567 39.7518 -0.185241
O 60.465 41.2841 1.17906
O 58.9986 43.1776 -0.185029
O 60.4649 41.2841 3.90746
O 56.9233 38.866 1.17881
O 55.6851 40.7517 -0.18503
O 56.9232 38.8665 3.90732
O 53.3051 47.019 2.54285
Si 54.6994 47.894 2.54341
Si 52.2337 45.7743 2.54337
O 55.6491 44.2255 2.54494
Si 56.7536 45.4462 2.54327
Si 54.2368 43.3875 2.54331
O 57.6371 45.1478 3.90734
O 56.0482 46.94 2.5433
O 57.6365 45.1477 1.17893
O 54.2619 42.5016 3.90746
O 52.9016 44.3008 2.54316
O 54.2623 42.502 1.17897
O 50.1146 50.3986 -0.185184
Si 51.4484 51.3634 -0.185168
Si 49.1273 49.0863 -0.185282
O 52.6363 47.7646 -0.184705
Si 53.6581 49.0552 -0.184989
Si 51.2822 46.8354 -0.185022
O 54.559 48.8157 1.17925
O 52.8566 50.4997 -0.185181
O 54.5591 48.8154 3.90776
O 51.3657 45.9533 1.17926
O 49.8901 47.6596 -0.185072
O 51.3659 45.9532 3.90764
O 46.7092 53.562 2.54403
Si 47.977 54.6118 2.54361
Si 45.8103 52.1876 2.54375
O 49.3986 51.0989 2.54309
Si 50.3335 52.4538 2.54326
Si 48.1083 50.083 2.54314
O 51.2482 52.2738 3.90748
O 49.4389 53.8425 2.54322
O 51.2482 52.2738 1.17904
O 48.2497 49.208 3.90724
O 46.6652 50.8141 2.54356
O 48.2494 49.2083 1.17883
O 43.104 56.4947 -0.185438
Si 44.3001 57.6256 -0.184909
Si 42.2969 55.0644 -0.185109
O 45.9489 54.2135 -0.184745
Si 46.793 55.6268 -0.184825
Si 44.728 53.1152 -0.184688
O 47.7172 55.5073 1.17955
O 45.8093 56.9539 -0.185064
O 47.7177 55.507 3.90795
O 44.9263 52.2516 1.17958
O 43.24 53.75 -0.184734
O 44.9264 52.2515 3.90796
O 39.3149 59.186 2.54253
Si 40.4344 60.3928 2.54357
Si 38.6029 57.706 2.54376
O 42.3023 57.0954 2.54381
Si 43.0523 58.5608 2.54356
Si 41.156 55.9194 2.54335
O 43.9825 58.502 3.90776
O 41.9841 59.8209 2.54357
O 43.9825 58.5018 1.17937
O 41.4108 55.0703 3.90743
O 39.6297 56.4557 2.54354
O 41.4105 55.0706 1.17904
O 35.3575 61.6244 -0.185044
Si 36.396 62.9016 -0.184821
Si 34.7444 60.1009 -0.184894
O 38.476 59.7333 -0.183368
Si 39.1283 61.2447 -0.184754
Si 37.409 58.485 -0.184576
O 40.0605 61.2469 1.17948
O 37.9799 62.4322 -0.184798
O 40.0603 61.2465 3.90782
O 37.7179 57.6544 1.17974
O 35.8509 58.9206 -0.185252
O 37.7186 57.6544 3.9082
O -39.3472 -59.159 2.54484
Si -40.4668 -60.3657 2.54457
Si -38.6354 -57.679 2.54468
O -42.3349 -57.0684 2.54423
Si -43.0849 -58.5338 2.54443
Si -41.1887 -55.8924 2.54441
O -44.0152 -58.4747 3.90864
O -42.0166 -59.7938 2.54449
O -44.0151 -58.4748 1.18015
O -41.4431 -55.0436 3.90868
O -39.6623 -56.4288 2.54467
O -41.4432 -55.0434 1.18026
O -35.389 -61.5956 -0.183809
Si -36.4275 -62.8727 -0.183782
Si -34.7757 -60.0721 -0.1839
O -38.5082 -59.7056 -0.184001
Si -39.1603 -61.217 -0.183864
Si -37.441 -58.4573 -0.183753
O -40.0924 -61.2193 1.18034
O -38.0115 -62.404 -0.183821
O -40.0925 -61.2193 3.90881
O -37.7508 -57.6269 1.18039
O -35.8827 -58.8923 -0.18343
O -37.7505 -57.627 3.90879
O -31.2814 -63.7689 2.54482
Si -32.2339 -65.1114 2.54471
Si -30.7682 -62.2088 2.54468
O -34.516 -62.086 2.54436
Si -35.0684 -63.6367 2.54464
Si -33.5328 -60.7706 2.54453
O -35.9983 -63.7 3.90883
O -33.845 -64.7467 2.54469
O -35.9984 -63.7 1.18048
O -33.8966 -59.9621 3.90859
O -31.9494 -61.1032 2.54516
O -33.8959 -59.9625 1.18007
O -27.0409 -65.6725 -0.183032
Si -27.9039 -67.0742 -0.183353
Si -26.6308 -64.0822 -0.183187
O -30.3782 -64.2026 -0.184194
Si -30.8281 -65.7861 -0.183726
Si -29.4828 -62.826 -0.183773
O -31.752 -65.9092 1.18051
O -29.5353 -66.8145 -0.183491
O -31.752 -65.9093 3.90886
O -29.898 -62.0425 1.18021
O -27.8812 -63.0555 -0.183318
O -29.8974 -62.0427 3.9088
O 22.6499 67.315 2.54413
Si 23.4194 68.7701 2.5441
Si 22.3452 65.7012 2.54411
O 26.0773 66.0688 2.54363
Si 26.4223 67.6784 2.54378
Si 25.274 64.6364 2.54375
O 27.3361 67.8624 3.90792
O 25.0644 68.6189 2.544
O 27.3359 67.8625 1.17948
O 25.7399 63.8822 3.90789
O 23.6608 64.7595 2.54423
O 25.7395 63.8824 1.17935
O 18.1972 68.6466 -0.184037
Si 18.8702 70.1489 -0.184125
Si 17.9981 67.0164 -0.183978
O 21.698 67.6265 -0.184448
Si 21.9377 69.2551 -0.184312
Si 20.99 66.1446 -0.184316
O 22.8374 69.4981 1.1799
O 20.5214 70.1053 -0.184156
O 22.8374 69.4981 3.90833
O 21.504 65.4224 1.17984
O 19.3723 66.1624 -0.1841
O 21.5038 65.4224 3.9083
O 13.6672 69.6861 2.5445
Si 14.2409 71.229 2.54437
Si 13.575 68.0464 2.54448
O 17.2272 68.8954 2.54435
Si 17.36 70.5362 2.54431
Si 16.6171 67.3707 2.54445
O 18.242 70.8374 3.90853
O 15.8915 71.2926 2.5444
O 18.242 70.8374 1.18008
O 17.1767 66.6834 3.90871
O 15.0016 67.2833 2.54424
O 17.1768 66.6834 1.18028
O 9.07932 70.4279 -0.183883
Si 9.55107 72.005 -0.183907
Si 9.09415 68.7857 -0.183935
O 12.683 69.8712 -0.184132
Si 12.7087 71.5172 -0.184055
Si 12.1738 68.3099 -0.183954
O 13.5693 71.8751 1.18013
O 11.194 72.1762 -0.183917
O 13.5691 71.8752 3.90854
O 12.777 67.6606 1.18033
O 10.5675 68.1173 -0.184135
O 12.7772 67.6606 3.90877
O -13.7004 -69.6605 2.54548
Si -14.2732 -71.2037 2.54541
Si -13.6087 -68.0208 2.54531
O -17.2605 -68.8721 2.54624
Si -17.393 -70.5129 2.54546
Si -16.6512 -67.347 2.54556
O -18.275 -70.8145 3.90964
O -15.9239 -71.2683 2.54546
O -18.275 -70.8143 1.1812
O -17.2107 -66.6601 3.91003
O -15.0358 -67.2586 2.54497
O -17.2116 -66.6601 1.18152
O -9.11181 -70.3991 -0.182712
Si -9.58244 -71.9765 -0.182667
Si -9.12751 -68.7569 -0.182657
O -12.7158 -69.8449 -0.183278
Si -12.7406 -71.4909 -0.183039
Si -12.2075 -68.2833 -0.183128
O -13.601 -71.8493 1.18116
O -11.2253 -72.1487 -0.182958
O -13.601 -71.8494 3.90962
O -12.811 -67.6345 1.18115
O -10.6013 -68.0895 -0.183239
O -12.8112 -67.6344 3.90957
O -4.48463 -70.8366 2.5447
Si -4.85122 -72.4414 2.54516
Si -4.60774 -69.199 2.5451
O -8.1174 -70.5192 2.54596
Si -8.0343 -72.1632 2.54577
Si -7.71213 -68.9277 2.54579
O -8.86926 -72.577 3.91013
O -6.47932 -72.7207 2.54538
O -8.86968 -72.577 1.18164
O -8.35642 -68.3195 3.91016
O -6.12203 -68.6294 2.54523
O -8.3572 -68.3194 1.18181
O 0.161551 -70.9699 -0.182642
Si -0.099812 -72.5952 -0.182855
Si -0.0686499 -69.3439 -0.182587
O -3.48473 -70.891 -0.183101
Si -3.29427 -72.5261 -0.18325
Si -3.18424 -69.2765 -0.183311
O -4.10052 -72.9939 1.18094
O -1.70612 -72.9805 -0.183143
O -4.10044 -72.9938 3.90935
O -3.86742 -68.7118 1.18086
O -1.61701 -68.8749 -0.183351
O -3.86729 -68.7119 3.90929
O -4.83793 70.8385 2.54385
Si -4.68309 72.4774 2.54403
Si -4.50244 69.2309 2.54401
O -1.19435 70.9964 2.54469
Si -1.49066 72.6156 2.54436
Si -1.38932 69.3658 2.54433
O -0.716303 73.1344 3.90867
O -3.10506 72.966 2.54414
O -0.716181 73.1343 1.18012
O -0.671455 68.8462 3.90855
O -2.92704 68.8632 2.54416
O -0.671223 68.8463 1.18022
O -9.46126 70.3648 -0.184855
Si -9.41447 72.0103 -0.184767
Si -9.02071 68.7827 -0.184753
O -5.83623 70.7621 -0.184167
Si -6.23806 72.3584 -0.184414
Si -5.92335 69.1221 -0.184421
O -5.49958 72.9272 1.17982
O -7.872 72.6017 -0.184747
O -5.49941 72.9272 3.90832
O -5.17267 68.6513 1.17979
O -7.42456 68.5193 -0.184603
O -5.17276 68.6514 3.90818
O -14.0433 69.588 2.54277
Si -14.1048 71.233 2.54295
Si -13.4997 68.0383 2.54315
O -10.452 70.2232 2.54395
Si -10.9582 71.7896 2.54364
Si -10.4314 68.5811 2.54368
O -10.2588 72.4057 3.90796
O -12.6046 71.9248 2.54316
O -10.2585 72.4057 1.17953
O -9.65155 68.1605 3.9079
O -11.8897 67.8808 2.54328
O -9.65141 68.1605 1.17953
O -18.5641 68.5105 -0.186423
Si -18.7333 70.1479 -0.185953
Si -17.9203 66.9997 -0.186117
O -15.0227 69.381 -0.1851
Si -15.6305 70.9108 -0.185495
Si -14.8942 67.7437 -0.185283
O -14.9732 71.5717 1.1787
O -17.2822 70.9372 -0.185711
O -14.9732 71.5717 3.90717
O -14.0884 67.3756 1.17907
O -16.3033 66.9488 -0.185997
O -14.088 67.3758 3.90746
O 9.42946 -70.327 -0.183477
O 14.0126 -69.5546 2.54398
Si 14.0727 -71.1997 2.54413
Si 13.4709 -68.0042 2.54397
O 10.4213 -70.1856 2.54514
Si 10.9258 -71.7525 2.54487
Si 10.4016 -68.5435 2.54509
O 10.2261 -72.3682 3.9091
O 12.572 -71.8898 2.54453
O 10.226 -72.3682 1.18071
O 9.62178 -68.1227 3.90949
O 11.8609 -67.8448 2.54443
O 9.62108 -68.1228 1.18107
O 18.5361 -68.4862 -0.18475
Si 18.7032 -70.1238 -0.184366
Si 17.8945 -66.9745 -0.18439
O 14.9932 -69.3495 -0.1846
Si 15.5988 -70.8802 -0.18434
Si 14.8667 -67.7121 -0.184468
O 14.9404 -71.5399 1.17985
O 17.2504 -70.9101 -0.184319
O 14.9407 -71.5399 3.90822
O 14.0606 -67.3428 1.17956
O 16.2775 -66.9202 -0.184062
O 14.0611 -67.3427 3.9081
O 22.9803 -67.1245 2.54313
Si 23.2538 -68.7478 2.5435
Si 22.2412 -65.658 2.54351
O 19.5009 -68.2177 2.54443
Si 20.2054 -69.7054 2.54407
Si 19.2681 -66.592 2.54407
O 19.5915 -70.4067 3.90838
O 21.8554 -69.6272 2.54381
O 19.5913 -70.4067 1.17985
O 18.4398 -66.2759 3.90815
O 20.6241 -65.7096 2.54426
O 18.4401 -66.276 1.17978
Si 27.7046 -67.0767 -0.184923
Si 26.4922 -64.0597 -0.184953
O 23.9253 -66.7932 -0.184755
Si 24.7253 -68.2319 -0.184933
Si 23.5866 -65.1863 -0.184895
O 24.1585 -68.9719 1.17927
O 26.3667 -68.0458 -0.184936
O 24.1586 -68.9718 3.90766
O 22.7392 -64.9253 1.17904
O 24.8819 -64.2169 -0.184249
O 22.7401 -64.9251 3.90753
O -27.3478 65.484 -0.186748
O -31.5747 63.5518 2.5405
Si -32.0586 65.1252 2.54164
Si -30.6502 62.1944 2.54149
O -28.2691 65.091 2.5412
Si -29.1623 66.4738 2.54133
Si -27.825 63.5099 2.54143
O -28.6456 67.2496 3.90541
O -30.7878 66.1804 2.54161
O -28.6462 67.2494 1.17692
O -26.9622 63.3056 3.90553
O -29.0538 62.4573 2.54159
O -26.9626 63.3053 1.17715
O -35.6673 61.3486 -0.187235
Si -36.2522 62.8873 -0.187217
Si -34.6566 60.0542 -0.187179
O -32.4686 63.0998 -0.185978
Si -33.4497 64.4216 -0.186739
Si -31.9229 61.5508 -0.186846
O -32.985 65.2293 1.17758
O -35.0527 64.0229 -0.187094
O -32.9846 65.2292 3.90594
O -31.0488 61.4026 1.1773
O -33.0806 60.4205 -0.186572
O -31.049 61.4028 3.90573
O -39.6081 58.8843 2.54134
Si -40.2917 60.3818 2.54133
Si -38.5153 57.6583 2.54144
O -36.5299 60.8391 2.5413
Si -37.5946 62.0945 2.5412
Si -35.8845 59.329 2.54125
O -37.1831 62.9308 3.9054
O -39.1683 61.5927 2.54121
O -37.1832 62.9307 1.17697
O -35.0025 59.2384 3.90528
O -36.9664 58.126 2.54187
O -35.0032 59.2379 1.17678
Si -44.1605 57.6202 -0.186937
Si -42.2107 55.0182 -0.18717
O -40.4358 58.3206 -0.18701
Si -41.58 59.5041 -0.187091
Si -39.6937 56.8556 -0.186983
O -41.2236 60.365 1.17717
O -43.118 58.9014 -0.187028
O -41.2236 60.365 3.90551
O -38.8077 56.822 1.177
O -40.6954 55.5851 -0.18645
O -38.8083 56.8216 3.90553
O 35.6463 -61.3409 -0.184043
O 39.5851 -58.8738 2.54323
Si 40.2694 -60.371 2.54302
Si 38.4918 -57.6483 2.54288
O 36.5083 -60.8312 2.54223
Si 37.5736 -62.0861 2.54322
Si 35.8625 -59.3212 2.54337
O 37.1622 -62.9225 3.90747
O 39.147 -61.5829 2.54317
O 37.1624 -62.9227 1.17906
O 34.9811 -59.2308 3.90773
O 36.9434 -58.1173 2.54339
O 34.9807 -59.2306 1.17923
O 43.3545 -56.1556 -0.185027
Si 44.1353 -57.6047 -0.185059
Si 42.184 -55.0036 -0.185167
O 40.412 -58.3087 -0.186078
Si 41.5569 -59.4915 -0.185436
Si 39.6692 -56.844 -0.185586
O 41.201 -60.3532 1.17863
O 43.0941 -58.8871 -0.185214
O 41.2013 -60.3531 3.90722
O 38.7831 -56.8116 1.17842
O 40.6693 -55.5722 -0.184922
O 38.7839 -56.8109 3.90677
O 46.9411 -53.1984 2.54335
Si 47.8142 -54.5939 2.54338
Si 45.6978 -52.1254 2.54329
O 44.144 -55.5377 2.54347
Si 45.3633 -56.6437 2.54338
Si 43.3071 -54.1246 2.54327
O 45.0642 -57.5263 3.9077
O 46.8582 -55.941 2.54327
O 45.064 -57.5265 1.17921
O 42.4209 -54.1495 3.90741
O 44.2231 -52.7909 2.54376
O 42.4212 -54.1493 1.17896
Si 51.2892 -51.3505 -0.184853
Si 49.0169 -49.0246 -0.184862
O 47.6884 -52.531 -0.185195
Si 48.977 -53.5554 -0.18505
Si 46.7615 -51.1753 -0.185142
O 48.736 -54.4555 1.17925
O 50.423 -52.757 -0.185102
O 48.7359 -54.4556 3.9076
O 45.8787 -51.2579 1.17888
O 47.5887 -49.7848 -0.184686
O 45.8792 -51.2574 3.90732
O -50.3531 50.0315 -0.186366
Si -49.0429 49.0414 -0.186396
O -53.5248 46.6346 2.54249
Si -54.5716 47.905 2.54228
Si -52.1529 45.7318 2.54238
O -51.0548 49.3172 2.54186
Si -52.4074 50.2554 2.54195
Si -50.042 48.0244 2.54203
O -52.2255 51.1695 3.90609
O -53.7985 49.3647 2.5423
O -52.2257 51.1693 1.17763
O -49.1668 48.1638 3.90623
O -50.777 46.5831 2.54229
O -49.1668 48.1637 1.17778
O -56.4695 43.0388 -0.185496
Si -57.5968 44.2383 -0.185682
Si -55.0415 42.2275 -0.185571
O -54.179 45.8762 -0.186468
Si -55.5898 46.7244 -0.186143
Si -53.0841 44.6522 -0.186064
O -55.4674 47.6484 1.178
O -56.9201 45.7451 -0.185762
O -55.4676 47.6483 3.90646
O -52.2197 44.8481 1.17812
O -53.7239 43.1662 -0.18571
O -52.2197 44.848 3.90657
O -59.1724 39.258 2.54324
Si -60.3758 40.3812 2.54308
Si -57.6945 38.5419 2.54302
O -57.0731 42.2394 2.54238
Si -58.5362 42.9938 2.54275
Si -55.9003 41.0897 2.54285
O -58.4742 43.9238 3.90696
O -59.7995 41.9294 2.54291
O -58.4743 43.9237 1.17848
O -55.0505 41.3415 3.90697
O -56.4412 39.565 2.5431
O -55.0506 41.3414 1.17866
Si -62.8957 36.3502 -0.185021
O -59.7218 38.4207 -0.185643
Si -61.2313 39.0776 -0.185342
Si -58.4765 37.3501 -0.185427
O -61.2306 40.0096 1.17893
O -62.4221 37.9327 -0.185224
O -61.2306 40.0097 3.90732
O -57.6451 37.6572 1.17869
O -58.9164 35.7932 -0.185067
O -57.6452 37.6569 3.90718
O 56.4446 -43.022 -0.183884
Si 55.0167 -42.2108 -0.184067
O 59.1477 -39.2414 2.5445
Si 60.3511 -40.3646 2.54436
Si 57.67 -38.5248 2.54436
O 57.0483 -42.2224 2.54424
Si 58.5113 -42.9769 2.54428
Si 55.8756 -41.0726 2.54435
O 58.4493 -43.907 3.90847
O 59.7747 -41.9126 2.54442
O 58.4494 -43.9069 1.17999
O 55.0261 -41.3243 3.9087
O 56.4167 -39.5479 2.54389
O 55.0256 -41.3249 1.1804
O 61.5982 -35.2916 -0.184251
Si 62.8723 -36.3339 -0.184012
Si 60.0767 -34.6734 -0.184179
O 59.6975 -38.4038 -0.184128
Si 61.2068 -39.0609 -0.184067
Si 58.4524 -37.3329 -0.184074
O 61.206 -39.993 1.18011
O 62.3979 -37.9163 -0.183882
O 61.2061 -39.9929 3.90852
O 57.6211 -37.6397 1.18026
O 58.8928 -35.7761 -0.184267
O 57.6209 -37.6401 3.90869
O 63.7849 -31.1901 2.54503
Si 65.1245 -32.1467 2.54465
Si 62.2262 -30.6729 2.54485
O 62.0921 -34.4202 2.54408
Si 63.6412 -34.977 2.54442
Si 60.7796 -33.433 2.54425
O 63.7011 -35.9073 3.90858
O 64.7548 -33.7567 2.54464
O 63.7013 -35.9071 1.18009
O 59.97 -33.7936 3.90846
O 61.1171 -31.8508 2.54451
O 59.97 -33.7935 1.18001
Si 67.0971 -27.8206 -0.184011
O 64.2206 -30.2882 -0.183936
Si 65.8028 -30.7423 -0.183794
Si 62.8462 -29.3892 -0.183595
O 65.9236 -31.6666 1.18043
O 66.8339 -29.4515 -0.183697
O 65.9237 -31.6666 3.90883
O 62.0621 -29.802 1.18063
O 63.0791 -27.7882 -0.183556
O 62.0619 -29.8021 3.90912
O -65.7209 26.9714 -0.184591
Si -64.1318 26.5571 -0.184556
O -67.3524 22.6193 2.54424
Si -68.8054 23.3929 2.54458
Si -65.7395 22.3102 2.54467
O -66.0965 26.0431 2.54429
Si -67.705 26.3927 2.5441
Si -64.6664 25.2357 2.5439
O -67.8864 27.3069 3.90834
O -68.6495 25.0374 2.54418
O -67.8863 27.3069 1.17985
O -63.9109 25.6988 3.90813
O -64.794 23.623 2.54397
O -63.9109 25.6989 1.17969
O -68.696 18.1704 -0.183931
Si -70.1967 18.8471 -0.183829
Si -67.0663 17.9674 -0.184054
O -67.6664 21.6687 -0.183027
Si -69.2945 21.9123 -0.183788
Si -66.1865 20.9568 -0.183704
O -69.5351 22.8126 1.18055
O -70.1484 20.4983 -0.183993
O -69.5348 22.813 3.90894
O -65.4629 21.468 1.18065
O -66.2086 19.3391 -0.184177
O -65.4628 21.4688 3.90914