2592
 Atoms. Timestep: 81361
O 28.1879 3.60653 5.94155
Si 29.7108 4.24592 6.06959
Si 26.603 3.19929 6.14884
O 28.9163 0.918915 6.12937
Si 30.5335 1.1515 5.965
Si 27.4146 0.31824 5.86437
O 31.1606 0.402682 7.31754
O 30.6122 2.82966 5.99578
O 31.0832 0.436886 4.56487
O 27.1008 -0.648257 7.13241
O 26.4786 1.60742 6.04526
O 27.1265 -0.0398873 4.31319
O 26.1593 8.48765 3.30203
Si 27.7552 8.88398 3.38805
Si 24.8047 7.57562 3.43309
O 27.6622 5.04964 3.52023
Si 29.0664 5.90205 3.43125
Si 26.0499 4.76062 3.58513
O 29.8461 5.27074 4.76312
O 28.7699 7.55188 3.46815
O 29.8152 5.33472 2.05121
O 25.808 3.84236 4.89728
O 25.1228 6.05084 3.82676
O 25.7225 4.0703 2.15493
O 23.6134 12.4348 6.03882
Si 25.1442 13.0501 6.09723
Si 22.4039 11.3339 6.15425
O 25.6667 9.32608 6.21931
Si 26.951 10.3452 6.10029
Si 24.1164 8.79293 6.13869
O 27.8595 9.8365 7.40457
O 26.3802 11.9195 6.14721
O 27.7602 9.88571 4.71938
O 24.0844 7.7701 7.39218
O 22.9813 9.8725 6.47629
O 23.9292 8.16521 4.65997
O 20.7142 15.5083 3.12397
Si 22.0262 16.4922 3.23513
Si 19.8888 14.0929 3.1378
O 23.3587 12.7823 3.34208
Si 24.2788 14.1459 3.264
Si 21.996 11.8906 3.19905
O 25.1155 13.9374 4.68829
O 23.4324 15.5871 3.16465
O 25.1881 13.7739 1.92192
O 21.7307 11.3015 4.68235
O 20.7732 12.8202 2.74468
O 22.171 10.8668 1.96287
O 17.1291 18.255 5.82736
Si 18.232 19.4679 5.96087
Si 16.5272 16.7293 5.87681
O 20.1605 16.048 6.05201
Si 20.8493 17.5454 5.98371
Si 18.9885 14.9098 5.92107
O 21.7206 17.4829 7.4012
O 19.7749 18.8253 5.89981
O 21.8061 17.3575 4.63663
O 18.8887 14.2556 7.39999
O 17.5834 15.5774 5.52463
O 19.3294 13.9669 4.65119
O 12.7356 20.6504 3.27538
Si 13.7859 21.9191 3.35976
Si 12.2311 19.099 3.41854
O 16.0781 18.9112 3.50674
Si 16.6761 20.4371 3.37949
Si 14.9577 17.7139 3.46732
O 17.7334 20.3968 4.66856
O 15.4095 21.5265 3.45611
O 17.5716 20.4792 1.97972
O 15.4489 16.7394 4.66606
O 13.4658 18.1639 3.84055
O 15.0214 17.1514 1.95022
O 8.38264 22.1047 5.99932
Si 9.21782 23.5246 6.0826
Si 8.11378 20.4944 6.13814
O 11.9342 20.9127 6.23048
Si 12.2968 22.5108 6.09782
Si 11.0261 19.5468 6.17756
O 13.3421 22.6441 7.38841
O 10.8812 23.3938 6.17163
O 13.1779 22.691 4.70099
O 11.6608 18.6736 7.38759
O 9.47408 19.7369 6.532
O 11.2072 18.9906 4.66743
O 4.24933 22.8099 3.10922
Si 4.70728 24.3853 3.22609
Si 4.37968 21.1746 3.14993
O 7.94329 22.1962 3.31113
Si 7.89893 23.8423 3.23697
Si 7.40433 20.6536 3.18036
O 8.68477 24.1967 4.65824
O 6.36929 24.5036 3.1433
O 8.8474 24.1042 1.89827
O 7.62639 20.0307 4.66201
O 5.84231 20.6112 2.80221
O 8.1563 19.9599 1.92392
O -0.327049 23.0264 5.83511
Si -0.102749 24.6513 5.95769
Si 0.0251865 21.4239 5.88424
O 3.40309 22.9364 6.04406
Si 3.13069 24.5607 5.96811
Si 3.09608 21.3308 5.91423
O 3.86036 25.022 7.38822
O 1.52494 25.0038 5.87787
O 4.02743 24.958 4.62784
O 3.42555 20.7442 7.39149
O 1.55318 21.0574 5.55038
O 3.93384 20.7555 4.65139
O -5.28904 22.6005 3.286
Si -5.13671 24.2401 3.36614
Si -4.86313 21.0229 3.41951
O -1.57449 22.9792 3.49883
Si -1.92075 24.5822 3.37588
Si -1.80968 21.3555 3.45003
O -1.03116 25.1414 4.6664
O -3.57059 24.8064 3.4584
O -1.20807 25.1136 1.97456
O -0.86907 20.8313 4.66529
O -3.30456 20.8748 3.78871
O -1.3894 20.9167 1.94693
O -9.76275 21.5268 6.02249
Si -9.83758 23.1719 6.09992
Si -9.12405 20.0223 6.15351
O -6.13443 22.4038 6.22743
Si -6.69728 23.9445 6.10673
Si -6.14261 20.7632 6.17938
O -5.89345 24.6198 7.39761
O -8.36218 23.9444 6.19018
O -6.06191 24.5668 4.70569
O -5.14268 20.3728 7.39756
O -7.55833 20.0832 6.51711
O -5.6586 20.3838 4.67903
O -13.6811 19.9819 3.12157
Si -14.1333 21.5577 3.24797
Si -12.7016 18.6659 3.17098
O -10.2166 21.3904 3.33658
Si -11.129 22.7615 3.25562
Si -9.85043 19.7987 3.20098
O -10.6452 23.4696 4.6788
O -12.7789 22.5278 3.16616
O -10.465 23.4804 1.91385
O -9.32041 19.3785 4.67638
O -11.1598 18.9463 2.82301
O -8.84885 19.6035 1.9422
O -17.7019 17.7696 5.85477
Si -18.3782 19.2628 5.98222
Si -16.5353 16.6165 5.90207
O -14.4678 19.6649 6.07245
Si -15.5736 20.8856 5.99033
Si -13.8777 18.1425 5.93464
O -15.1929 21.6532 7.41466
O -17.174 20.4162 5.90087
O -15.016 21.6902 4.64786
O -13.3032 17.7917 7.41097
O -15.0556 17.122 5.54418
O -12.8573 18.0901 4.67774
O -21.6707 14.7434 3.33005
Si -22.4224 16.2094 3.39718
Si -20.4507 13.6566 3.46107
O -18.7259 17.0704 3.52231
Si -19.8861 18.23 3.40277
Si -18.058 15.5722 3.48306
O -19.4292 19.1793 4.69288
O -21.3998 17.5284 3.48318
O -19.5599 19.0622 2.00286
O -16.9804 15.6298 4.6941
O -19.0694 14.3811 3.84529
O -17.4757 15.4145 1.97876
O -24.7867 11.3726 6.05575
Si -25.7543 12.7051 6.12745
Si -23.4077 10.5001 6.19542
O -22.238 14.1484 6.25732
Si -23.5694 15.1063 6.13928
Si -21.3539 12.7672 6.2284
O -23.2639 16.1143 7.43047
O -24.9519 14.1697 6.2165
O -23.3761 15.9801 4.73952
O -20.2949 12.9879 7.43527
O -22.1774 11.4454 6.60546
O -20.7661 12.6888 4.72077
O -27.0438 7.86571 3.18614
Si -28.3355 8.87562 3.28407
Si -25.4758 7.39136 3.25985
O -25.0385 11.0478 3.35803
Si -26.586 11.6159 3.2851
Si -23.8182 9.96174 3.23276
O -26.5892 12.4828 4.70561
O -27.7921 10.457 3.2061
O -26.4525 12.5857 1.93923
O -23.1582 9.90119 4.71115
O -24.4024 8.51372 2.86601
O -22.8877 10.363 1.97096
O -28.8892 3.65907 5.90564
Si -30.3402 4.44065 5.93585
Si -27.2639 3.40869 5.8596
O -27.4892 7.08948 6.14423
Si -29.0948 7.43906 6.0123
Si -26.0894 6.24721 6.01494
O -29.2545 8.29574 7.43284
O -30.0831 6.09393 5.88961
O -29.1177 8.4407 4.68494
O -25.4371 6.32106 7.49506
O -26.3407 4.70445 5.65062
O -25.2496 6.8424 4.76549
O -30.3233 -0.907512 3.41594
Si -31.8858 -0.391097 3.34731
Si -28.8241 -1.00502 4.16898
O -29.3671 2.3606 3.56219
Si -30.9645 2.71922 3.33121
Si -27.8464 1.74813 3.38745
O -31.1291 3.76059 4.63021
O -31.8425 1.28863 3.35813
O -31.1832 3.61069 1.94364
O -27.0098 2.53207 4.5253
O -27.8147 0.236332 3.9231
O -27.385 1.94651 1.8515
O -29.6295 -4.82787 4.98029
Si -31.247 -5.06097 5.28318
Si -28.2111 -3.99544 4.97391
O -30.909 -2.34052 6.84688
Si -32.3174 -2.06542 6.04221
Si -29.3639 -1.91102 6.83881
O -32.5624 -1.05906 7.40486
O -32.1925 -3.68619 5.51658
O -32.516 -1.06785 4.72775
O -28.6274 -1.63419 8.22017
O -28.6485 -2.45608 5.28407
O -29.3428 -0.640366 5.74136
O -27.3145 -8.55889 2.68825
Si -28.8297 -9.17941 2.55366
Si -26.0849 -7.49794 2.49245
O -29.2243 -5.38123 2.25736
Si -30.5071 -6.39801 2.47931
Si -27.6621 -4.88003 2.13196
O -31.3437 -5.92144 3.8452
O -30.0107 -7.99676 2.46293
O -31.3505 -5.8814 33.8678
O -27.4434 -4.17358 3.56973
O -26.5895 -6.06496 1.96276
O -27.5422 -3.91708 33.56
O -24.613 -11.8478 5.57187
Si -25.9114 -12.842 5.37496
Si -23.5725 -10.5863 5.40978
O -26.9209 -9.11235 5.31642
Si -27.9924 -10.3706 5.36074
Si -25.5382 -8.22603 5.39725
O -28.8762 -10.0192 6.72386
O -27.2742 -11.8778 5.39528
O -28.8474 -10.0639 3.96532
O -25.5769 -7.35377 6.75786
O -24.2232 -9.13073 5.58852
O -25.4462 -7.43741 3.98268
O -21.1053 -15.168 2.78562
Si -22.3622 -16.2237 2.69805
Si -20.3635 -13.7079 2.78509
O -23.9459 -12.6516 2.57733
Si -24.78 -14.0643 2.66816
Si -22.6445 -11.6754 2.71663
O -25.7237 -13.7532 3.99973
O -23.8296 -15.4323 2.78278
O -25.6259 -13.9402 33.9675
O -22.9129 -10.65 3.93496
O -21.3427 -12.498 3.16263
O -22.4517 -11.056 33.9579
O -17.076 -17.9312 5.39283
Si -18.2433 -19.0954 5.31725
Si -16.3625 -16.4592 5.26963
O -20.1336 -15.8721 5.15874
Si -20.9336 -17.302 5.30228
Si -18.9249 -14.7634 5.2483
O -21.8502 -17.2205 6.68481
O -19.8145 -18.5375 5.25514
O -21.9624 -17.1828 3.99865
O -19.0234 -14.1151 6.72897
O -17.4422 -15.3088 4.96229
O -19.2901 -13.801 3.99482
O -12.9689 -19.9457 2.66928
Si -13.9633 -21.2568 2.58479
Si -12.5076 -18.3798 2.52895
O -16.3399 -18.2997 2.44521
Si -16.8792 -19.849 2.55912
Si -15.276 -17.0512 2.47769
O -17.7609 -19.927 3.96324
O -15.5921 -20.9077 2.4811
O -17.9276 -19.8507 33.9904
O -15.3755 -16.4613 3.98443
O -13.7584 -17.4496 2.1318
O -15.796 -16.0998 33.9941
O -8.95736 -21.2577 5.58096
Si -9.61033 -22.7616 5.4427
Si -8.82471 -19.6223 5.50927
O -12.4784 -20.1341 5.34345
Si -12.6844 -21.7689 5.42067
Si -11.7505 -18.6687 5.47001
O -13.6438 -21.9121 6.76726
O -11.2718 -22.6506 5.50052
O -13.5281 -21.9988 4.00711
O -12.3791 -17.8981 6.75039
O -10.1814 -18.8105 5.80029
O -11.9503 -17.9972 4.00516
O -4.39571 -22.1895 2.8425
Si -4.87714 -23.758 2.73073
Si -4.50308 -20.5527 2.80486
O -8.07871 -21.5309 2.63444
Si -8.05674 -23.1763 2.7134
Si -7.52449 -19.9948 2.76913
O -9.00681 -23.4311 4.05017
O -6.53837 -23.8572 2.81146
O -8.84402 -23.5228 34.0176
O -8.27779 -19.2909 4.0195
O -5.96051 -19.9673 3.14375
O -7.75776 -19.3608 34.0185
O 0.535478 -22.5277 5.41755
Si 0.139482 -24.1265 5.33823
Si 0.372987 -20.9007 5.2884
O -3.16684 -22.3244 5.19284
Si -3.086 -23.9622 5.32252
Si -2.69942 -20.7517 5.25672
O -3.88382 -24.3734 6.71748
O -1.49385 -24.447 5.25585
O -4.03961 -24.3819 4.02556
O -3.0852 -20.2462 6.74803
O -1.14436 -20.4843 4.95086
O -3.53155 -20.0991 4.02412
O 5.11713 -22.187 2.68668
Si 4.93278 -23.8226 2.60752
Si 4.72268 -20.6019 2.55248
O 1.39212 -22.4754 2.47618
Si 1.71127 -24.0847 2.59108
Si 1.65967 -20.8569 2.51745
O 0.989992 -24.5982 3.99365
O 3.3543 -24.3498 2.51221
O 0.815166 -24.6223 34.0219
O 1.2444 -20.3989 4.01659
O 3.16804 -20.4144 2.18323
O 0.736618 -20.3097 34.0238
O 9.25543 -21.3026 5.58506
Si 9.44828 -22.9309 5.45583
Si 8.53274 -19.8296 5.52052
O 5.63526 -22.1104 5.36464
Si 6.29123 -23.6214 5.44337
Si 5.52612 -20.4789 5.4929
O 5.52949 -24.2254 6.78888
O 7.956 -23.6698 5.52129
O 5.68485 -24.2444 4.02749
O 4.58485 -20.1256 6.76475
O 6.95519 -19.8197 5.82754
O 5.02673 -19.9933 4.02645
O 13.6501 -19.8033 2.85074
Si 14.0382 -21.3973 2.73724
Si 12.7254 -18.4484 2.80855
O 10.1422 -21.0959 2.64345
Si 10.9967 -22.5029 2.72376
Si 9.8342 -19.4918 2.77706
O 10.3081 -23.2033 4.06275
O 12.6531 -22.3233 2.8121
O 10.4834 -23.1998 34.0306
O 8.83153 -19.2661 4.03027
O 11.17 -18.6741 3.14358
O 9.30114 -19.0639 34.0301
O 18.0628 -17.6007 5.43467
Si 18.5429 -19.1765 5.36281
Si 17.0936 -16.2843 5.30258
O 14.7765 -19.3036 5.20152
Si 15.6785 -20.6727 5.33889
Si 14.373 -17.7136 5.26672
O 15.1914 -21.4355 6.72902
O 17.2983 -20.2838 5.29195
O 15.0739 -21.513 4.03528
O 13.7821 -17.4725 6.75597
O 15.5739 -16.6901 4.96856
O 13.3289 -17.5687 4.03202
O 21.8285 -14.9753 2.69977
Si 22.5144 -16.4708 2.64964
Si 20.6502 -13.8475 2.56762
O 18.7561 -17.1549 2.50376
Si 19.8773 -18.3523 2.61506
Si 18.16 -15.6288 2.52433
O 19.5074 -19.1652 4.01277
O 21.4259 -17.7334 2.56845
O 19.39 -19.2553 34.0289
O 17.5806 -15.4215 4.02177
O 19.241 -14.501 2.16725
O 17.0921 -15.6093 34.0311
O 24.9008 -12.0066 5.48123
Si 25.9455 -13.2815 5.49783
Si 23.5509 -11.0707 5.58374
O 22.2913 -14.5259 5.39828
Si 23.6086 -15.5185 5.45741
Si 21.3168 -13.2055 5.4667
O 23.2757 -16.435 6.80368
O 25.0625 -14.6988 5.51612
O 23.3892 -16.3988 4.06273
O 20.3685 -13.3462 6.77395
O 22.1264 -11.8198 5.59103
O 20.5627 -13.1684 4.03317
O 27.6468 -8.81317 2.37599
Si 29.1054 -9.56211 2.60794
Si 26.4462 -7.68843 2.31318
O 25.8485 -10.9977 3.03606
Si 27.1027 -12.0607 2.801
Si 24.5403 -9.99666 2.89067
O 26.874 -13.0326 4.13678
O 28.49 -11.1181 2.77269
O 26.934 -12.9875 34.1558
O 23.6617 -10.1549 4.24581
O 25.1072 -8.494 2.72147
O 23.7262 -10.276 34.2445
O 30.0521 -5.19151 6.85269
Si 31.4766 -5.31587 6.04617
Si 28.6197 -4.47189 6.82119
O 28.5579 -7.60582 5.11277
Si 30.0961 -8.15663 5.32242
Si 27.3792 -6.48446 4.93986
O 30.0203 -9.17069 6.6345
O 31.2068 -6.91946 5.57278
O 30.0356 -9.02493 3.88901
O 26.4673 -6.79774 6.23955
O 27.9382 -4.99285 5.25905
O 26.7035 -6.60965 3.48471
O 29.282 -0.835593 2.86185
Si 30.8548 -0.450587 3.17252
Si 27.6468 -0.851293 3.01992
O 29.7056 -3.63825 3.34407
Si 31.352 -3.62271 3.32058
Si 28.2227 -3.58309 4.12296
O 31.8191 -4.3262 4.75541
O 31.5966 -1.96038 3.21416
O 31.9115 -4.55169 2.03186
O 28.6829 -3.1984 5.72024
O 27.363 -2.33843 3.56263
O 27.9282 -4.51286 2.81181
O 28.0664 3.92598 11.8542
Si 29.6403 4.38673 11.5928
Si 26.46 3.56193 11.7127
O 28.8446 1.12311 11.6342
Si 30.47 1.28035 11.4331
Si 27.3038 0.661185 11.3087
O 31.151 0.50959 12.747
O 30.5275 2.96228 11.4974
O 31.0096 0.54428 10.0336
O 27.0269 -0.414644 12.4958
O 26.379 1.95321 11.5963
O 27.1184 0.194441 9.76841
O 26.2771 8.37521 8.63399
Si 27.8582 8.8122 8.72219
Si 25.0366 7.31183 8.61254
O 27.892 4.86018 8.90545
Si 29.1959 5.8391 8.79108
Si 26.3018 4.56271 8.84079
O 29.8463 5.3352 10.2411
O 28.8732 7.47926 8.67033
O 29.9111 5.15284 7.45103
O 25.8511 4.14201 10.3317
O 25.5128 5.83083 8.27396
O 26.074 3.52508 7.63458
O 23.8424 12.0647 11.286
Si 25.2746 12.8579 11.4462
Si 22.7566 10.8372 11.3654
O 25.9349 8.99061 11.5464
Si 27.0922 10.1657 11.4807
Si 24.4556 8.29713 11.415
O 27.8875 9.77026 12.8912
O 26.5165 11.7365 11.4172
O 27.9348 9.69824 10.1259
O 24.1521 7.64201 12.8618
O 23.3359 9.38217 11.043
O 24.444 7.34332 10.1133
O 20.4781 15.7797 8.74136
Si 21.8861 16.634 8.82454
Si 19.5025 14.4728 8.88367
O 23.0736 13.0244 8.96558
Si 24.1335 14.2757 8.84961
Si 21.6191 12.2678 8.94155
O 25.1153 13.8913 10.1442
O 23.2903 15.7228 8.91883
O 24.997 14.0071 7.45241
O 21.7488 11.1961 10.149
O 20.3695 13.1954 9.3199
O 21.4809 11.7012 7.43148
O 16.7934 18.5469 11.4602
Si 18.04 19.625 11.5397
Si 16.0337 17.1022 11.5971
O 19.7969 16.2914 11.6884
Si 20.6508 17.6896 11.5552
Si 18.4973 15.2914 11.6325
O 21.6841 17.4859 12.8486
O 19.5804 18.9743 11.62
O 21.554 17.5653 10.164
O 18.8164 14.2683 12.8467
O 17.0908 15.9641 11.9975
O 18.4907 14.7057 10.124
O 13.0734 20.4433 8.56462
Si 13.984 21.8079 8.67875
Si 12.7303 18.8398 8.59468
O 16.4391 18.7481 8.76636
Si 16.8761 20.3356 8.69446
Si 15.455 17.4457 8.6324
O 17.7334 20.4321 10.1169
O 15.6076 21.4206 8.59825
O 17.8603 20.2922 7.355
O 15.4416 16.8004 10.1191
O 13.9684 17.8923 8.22274
O 15.9613 16.5498 7.38331
O 8.7682 21.9434 11.2841
Si 9.44468 23.4377 11.4081
Si 8.65858 20.3065 11.3308
O 12.3296 20.798 11.4946
Si 12.5257 22.4337 11.4225
Si 11.5732 19.349 11.3657
O 13.3619 22.6631 12.8419
O 11.1079 23.3124 11.3331
O 13.499 22.5551 10.0807
O 11.7015 18.7004 12.8469
O 10.0218 19.5327 10.9873
O 12.2069 18.558 10.102
O 3.87202 22.9026 8.72896
Si 4.48159 24.4324 8.81272
Si 3.84717 21.27 8.86791
O 7.55993 22.2465 8.95505
Si 7.67317 23.8819 8.82771
Si 6.87011 20.7583 8.90769
O 8.68749 24.1688 10.1172
O 6.1446 24.5468 8.90744
O 8.50789 24.1953 7.42694
O 7.63214 19.9871 10.115
O 5.30504 20.7185 9.25991
O 7.12963 20.2324 7.39724
O -0.718817 23.0633 11.4598
Si -0.337908 24.6655 11.5416
Si -0.51672 21.4422 11.5949
O 3.01276 22.9322 11.6801
Si 2.89564 24.5675 11.5529
Si 2.55157 21.3578 11.6277
O 3.85391 24.9988 12.8438
O 1.29107 25.0141 11.6323
O 3.67866 24.9954 10.1533
O 3.41 20.709 12.8429
O 1.00616 21.0855 11.9677
O 2.90462 20.8694 10.1232
O -4.90822 22.6209 8.56754
Si -4.90716 24.261 8.68874
Si -4.3366 21.083 8.61489
O -1.19751 23.039 8.77536
Si -1.6922 24.6096 8.69749
Si -1.28197 21.407 8.64343
O -1.03577 25.1654 10.1189
O -3.34273 24.8304 8.60599
O -0.857331 25.1249 7.35783
O -0.876918 20.8677 10.1201
O -2.7737 20.9302 8.27659
O -0.369739 20.9501 7.38382
O -9.38382 21.602 11.2968
Si -9.61111 23.2259 11.422
Si -8.60454 20.1582 11.3472
O -5.76483 22.5182 11.5105
Si -6.47212 24.0054 11.4307
Si -5.62215 20.8904 11.3772
O -5.89562 24.643 12.8526
O -8.13769 24.0017 11.3407
O -5.71676 24.6287 10.0898
O -5.14513 20.4081 12.8521
O -7.03564 20.2175 11.0085
O -4.65814 20.5618 10.1162
O -14.0483 19.8513 8.76045
Si -14.35 21.4704 8.83522
Si -13.2041 18.4516 8.89031
O -10.5708 21.2199 8.95989
Si -11.3435 22.667 8.8409
Si -10.3531 19.5938 8.91488
O -10.6382 23.4462 10.1313
O -12.9932 22.4374 8.92503
O -10.7988 23.3702 7.43956
O -9.30775 19.3436 10.1316
O -11.6632 18.7299 9.25729
O -9.82373 19.2816 7.41431
O -18.0528 17.5846 11.499
Si -18.5799 19.145 11.5716
Si -17.0126 16.3244 11.6291
O -14.7982 19.4396 11.6929
Si -15.7723 20.7597 11.5761
Si -14.3561 17.8598 11.6526
O -15.1824 21.6309 12.8661
O -17.3729 20.2951 11.661
O -15.3306 21.5327 10.1747
O -13.2847 17.7583 12.8672
O -15.5328 16.8267 12.0055
O -13.794 17.6207 10.1507
O -21.3404 14.9871 8.59283
Si -22.2373 16.3588 8.72011
Si -20.0072 14.032 8.64129
O -18.4234 17.354 8.80727
Si -19.706 18.3879 8.7262
Si -17.612 15.9376 8.66925
O -19.4408 19.2033 10.1508
O -21.2184 17.6807 8.64037
O -19.2728 19.2645 7.38179
O -17.0011 15.6657 10.1468
O -18.6274 14.7592 8.27214
O -16.5956 16.034 7.41255
O -24.4954 11.6573 11.3327
Si -25.5988 12.8703 11.4494
Si -23.0228 10.9353 11.3708
O -21.988 14.4692 11.545
Si -23.4209 15.2819 11.4608
Si -20.9646 13.1982 11.4067
O -23.2853 16.1295 12.886
O -24.8005 14.3386 11.3712
O -23.1253 16.218 10.1179
O -20.329 13.0133 12.8864
O -21.7845 11.8809 10.9979
O -19.9725 13.4543 10.1537
O -27.2947 7.52702 8.81486
Si -28.4693 8.68467 8.84951
Si -25.7898 6.89693 8.96546
O -25.2448 10.6915 8.99699
Si -26.7128 11.42 8.86436
Si -24.147 9.4743 8.95882
O -26.5746 12.461 10.1603
O -27.9221 10.2651 8.92152
O -26.658 12.3219 7.46967
O -23.132 9.86655 10.1586
O -24.7335 8.0385 9.35502
O -23.5677 9.48723 7.44735
O -29.1444 3.333 11.411
Si -30.4774 4.28346 11.5029
Si -27.554 3.02205 11.5634
O -27.6243 6.84912 11.7197
Si -29.2048 7.28299 11.5936
Si -26.3588 5.81026 11.7409
O -29.2376 8.31623 12.9045
O -30.1947 5.9313 11.623
O -29.2993 8.18296 10.2001
O -25.4225 6.32072 12.9556
O -26.7857 4.3157 12.1083
O -25.7675 5.8978 10.2373
O -30.2302 -0.417926 8.62702
Si -31.8562 -0.194151 8.66799
Si -28.7501 -0.499625 9.39364
O -29.2629 2.73346 8.51282
Si -30.9115 2.91595 8.66269
Si -27.6922 2.22273 8.63353
O -31.1614 3.77953 10.0664
O -31.8038 1.49103 8.58905
O -31.0851 3.8927 7.32053
O -27.0739 2.69552 10.054
O -27.7341 0.629378 8.85302
O -26.942 2.68309 7.27491
O -29.7311 -4.40481 10.582
Si -31.3135 -4.84081 10.7578
Si -28.4074 -3.43444 10.4597
O -30.8386 -1.71695 12.1928
Si -32.2694 -1.83364 11.3995
Si -29.35 -1.12245 12.1305
O -32.5984 -1.07658 12.8949
O -32.2491 -3.46861 11.0012
O -32.4421 -0.813158 10.1001
O -28.5466 -1.30528 13.4911
O -28.7303 -1.8547 10.646
O -29.1808 0.0664793 10.9516
O -27.3614 -8.55159 8.20531
Si -28.8921 -9.15335 8.14191
Si -26.2227 -7.37767 8.23981
O -29.3808 -5.31295 7.87764
Si -30.6064 -6.39074 8.07011
Si -27.8228 -4.82414 7.8616
O -31.4515 -5.7555 9.364
O -30.0707 -7.96795 8.23259
O -31.3346 -6.0418 6.61818
O -27.7748 -3.68876 9.00261
O -26.8652 -5.93951 8.49306
O -27.455 -4.43093 6.33857
O -24.307 -12.2529 10.7867
Si -25.756 -13.0475 10.7534
Si -23.1847 -11.0566 10.6954
O -26.6131 -9.47436 10.5718
Si -27.8291 -10.5634 10.7669
Si -25.1688 -8.71429 10.7539
O -28.6886 -10.1772 12.1376
O -27.1135 -12.073 10.7395
O -28.7797 -10.1735 9.45467
O -25.118 -8.05345 12.2287
O -23.8662 -9.61565 10.4926
O -25.2515 -7.70017 9.49151
O -20.9305 -15.3221 8.10062
Si -22.248 -16.3067 8.01499
Si -20.0658 -13.9392 7.9557
O -23.7282 -12.7924 7.87693
Si -24.666 -14.1398 7.9815
Si -22.355 -11.8954 7.87966
O -25.542 -13.9664 9.3836
O -23.7163 -15.5137 7.90907
O -25.6674 -13.8506 6.68042
O -22.2668 -11.2953 9.38235
O -21.0194 -12.7165 7.53009
O -22.5764 -10.8397 6.66707
O -17.4272 -17.6642 11.0291
Si -18.4456 -18.9479 10.873
Si -16.8455 -16.1306 10.9374
O -20.4951 -15.6497 10.7692
Si -21.1421 -17.1663 10.8437
Si -19.4063 -14.4268 10.8911
O -22.0989 -17.0568 12.1958
O -20.0194 -18.3984 10.9128
O -22.0279 -17.1439 9.4358
O -19.7873 -13.5365 12.1897
O -17.9233 -14.9689 11.2021
O -19.44 -13.7103 9.43534
O -13.2379 -19.8001 8.27678
Si -14.1294 -21.1778 8.17314
Si -12.9151 -18.1925 8.25179
O -16.6318 -18.1826 8.07457
Si -17.0444 -19.7745 8.1521
Si -15.6777 -16.8592 8.21177
O -18.0313 -19.7604 9.48694
O -15.7577 -20.8304 8.25584
O -17.8944 -19.8991 6.72975
O -16.2201 -15.9701 9.45146
O -14.1731 -17.261 8.60797
O -15.7092 -16.1971 6.7313
O -8.57956 -21.4059 10.8642
Si -9.38464 -22.8432 10.7843
Si -8.3036 -19.7942 10.7355
O -12.0948 -20.2425 10.6329
Si -12.4559 -21.8415 10.7675
Si -11.2292 -18.8488 10.7042
O -13.3412 -22.0246 12.1589
O -11.0457 -22.7266 10.7063
O -13.4844 -21.9984 9.46889
O -11.476 -18.2597 12.1937
O -9.65764 -18.9921 10.4028
O -11.8559 -18.0055 9.46667
O -4.07369 -22.2658 8.13629
Si -4.68046 -23.7957 8.05399
Si -4.03945 -20.6328 7.99989
O -7.7475 -21.5731 7.91778
Si -7.86019 -23.2097 8.03385
Si -7.06302 -20.0823 7.95842
O -8.68925 -23.5186 9.43712
O -6.34204 -23.8928 7.95484
O -8.86794 -23.4934 6.74017
O -7.33623 -19.5361 9.46055
O -5.49161 -20.0514 7.62276
O -7.8148 -19.3102 6.74317
O 0.149663 -22.4883 11.0394
Si -0.0924928 -24.1101 10.908
Si -0.157303 -20.8765 10.9747
O -3.5525 -22.3232 10.8125
Si -3.31879 -23.9538 10.8913
Si -3.23027 -20.7198 10.9408
O -4.21131 -24.3401 12.2359
O -1.72508 -24.4348 10.9733
O -4.06604 -24.398 9.47531
O -4.04644 -20.1357 12.2143
O -1.67872 -20.4544 11.277
O -3.58915 -20.1224 9.47411
O 4.77969 -22.1973 8.30593
Si 4.73092 -23.8371 8.19032
Si 4.24882 -20.6451 8.26359
O 1.0576 -22.521 8.09524
Si 1.50922 -24.1038 8.17529
Si 1.18507 -20.8925 8.22935
O 0.661179 -24.599 9.51342
O 3.15286 -24.3666 8.26912
O 0.836937 -24.6425 6.75493
O 0.277482 -20.4119 9.48339
O 2.68849 -20.4539 8.59758
O 0.784758 -20.3409 6.75578
O 9.63212 -21.2393 10.8754
Si 9.67029 -22.886 10.7991
Si 9.04787 -19.712 10.7467
O 6.00473 -22.0089 10.6533
Si 6.51285 -23.5682 10.7832
Si 6.04283 -20.3687 10.7156
O 5.84991 -24.1735 12.178
O 8.17662 -23.6212 10.7188
O 5.70182 -24.2214 9.48559
O 5.5396 -19.9799 12.2068
O 7.47442 -19.7053 10.4096
O 5.06825 -19.955 9.4839
O 13.9653 -19.7111 8.14244
Si 14.2179 -21.3372 8.06961
Si 13.16 -18.2908 8.00764
O 10.44 -20.9716 7.93944
Si 11.1771 -22.4374 8.05214
Si 10.2741 -19.3399 7.97499
O 10.6128 -23.1219 9.45369
O 12.8326 -22.2606 7.97861
O 10.4564 -23.1888 6.75431
O 9.75645 -19.0016 9.47353
O 11.6141 -18.5236 7.63276
O 9.24267 -19.0506 6.75562
O 17.7229 -17.7525 11.0263
Si 18.3537 -19.2669 10.9085
Si 16.6337 -16.5255 10.9565
O 14.4552 -19.4924 10.8215
Si 15.4907 -20.7742 10.8984
Si 13.9069 -17.9514 10.9432
O 14.9179 -21.557 12.2469
O 17.1106 -20.378 10.9648
O 15.0615 -21.5399 9.48692
O 12.9129 -17.8553 12.2199
O 15.1042 -16.9223 11.2492
O 13.2835 -17.6246 9.48137
O 21.5731 -15.1011 8.2645
Si 22.3765 -16.5346 8.19745
Si 20.3247 -14.0363 8.23971
O 18.549 -17.2888 8.10517
Si 19.7421 -18.4232 8.18244
Si 17.8186 -15.8263 8.22659
O 19.2666 -19.2862 9.52092
O 21.2909 -17.8021 8.26088
O 19.4228 -19.2441 6.77197
O 16.7936 -15.8745 9.48119
O 18.8752 -14.6585 8.55278
O 17.1713 -15.5786 6.76014
O 25.2355 -11.8313 11.016
Si 26.1054 -13.2161 10.912
Si 23.9086 -10.8916 10.9444
O 22.4783 -14.4042 10.7234
Si 23.7492 -15.4417 10.8329
Si 21.6755 -12.9761 10.7511
O 23.4758 -16.3212 12.2132
O 25.2006 -14.6167 10.8246
O 23.4001 -16.3834 9.50316
O 21.0191 -12.8907 12.2262
O 22.5984 -11.6959 10.4879
O 20.6543 -13.0704 9.49848
O 28.0018 -8.35676 7.7293
Si 29.1565 -9.50687 8.01635
Si 26.5603 -7.56751 7.65762
O 25.7672 -11.171 8.03905
Si 27.1565 -12.0416 8.15676
Si 24.6969 -9.93918 8.17308
O 27.0258 -12.9263 9.55763
O 28.4861 -11.0346 8.08663
O 26.9083 -13.0215 6.83113
O 24.1523 -9.89753 9.69308
O 25.268 -8.50824 7.73894
O 23.6393 -10.28 6.99485
O 30.0499 -5.417 12.2887
Si 31.4954 -5.39752 11.5177
Si 28.6171 -4.7069 12.3047
O 28.4987 -7.66773 10.4668
Si 30.03 -8.20428 10.7959
Si 27.228 -6.62846 10.4554
O 29.9146 -9.215 12.1083
O 31.1762 -6.99831 11.0422
O 30.0429 -9.07663 9.3641
O 26.3253 -7.06061 11.7317
O 27.8088 -5.142 10.7799
O 26.537 -6.6742 9.00146
O 29.2458 -0.905908 8.50343
Si 30.8143 -0.45447 8.70728
Si 27.6106 -0.876381 8.66065
O 29.6123 -3.7411 8.88616
Si 31.2618 -3.64467 8.83368
Si 28.1123 -3.68034 9.66386
O 31.7863 -4.40073 10.2208
O 31.5262 -1.98051 8.79999
O 31.8536 -4.50785 7.50956
O 28.7003 -3.41452 11.2367
O 27.3032 -2.32335 9.30571
O 27.843 -4.3797 8.20669
O 28.1878 3.60652 16.8499
Si 29.7107 4.24589 16.978
Si 26.6029 3.19923 17.0573
O 28.9165 0.919011 17.0377
Si 30.5337 1.15151 16.8733
Si 27.4148 0.318232 16.7729
O 31.1609 0.40278 18.2259
O 30.6122 2.82968 16.9041
O 31.0833 0.436936 15.4731
O 27.1012 -0.648281 18.0409
O 26.4787 1.60735 16.9537
O 27.1265 -0.0399417 15.2217
O 26.1592 8.48777 14.2105
Si 27.7553 8.88386 14.2964
Si 24.8046 7.57581 14.3416
O 27.6623 5.04966 14.4288
Si 29.0666 5.90189 14.3395
Si 26.05 4.76083 14.4938
O 29.8462 5.27071 15.6715
O 28.77 7.55173 14.3762
O 29.8156 5.33424 12.9597
O 25.808 3.84249 15.8059
O 25.1229 6.05108 14.7354
O 25.7227 4.07057 13.0635
O 23.6133 12.4349 16.9473
Si 25.1441 13.05 17.0057
Si 22.4039 11.3339 17.0628
O 25.6666 9.326 17.1278
Si 26.9509 10.345 17.0087
Si 24.1163 8.79296 17.0472
O 27.8595 9.83639 18.313
O 26.3801 11.9194 17.0556
O 27.7603 9.88551 15.6278
O 24.0843 7.77005 18.3007
O 22.9813 9.87258 17.3849
O 23.9292 8.1654 15.5685
O 20.7142 15.5083 14.0324
Si 22.0262 16.4922 14.1436
Si 19.8888 14.0929 14.0462
O 23.3587 12.7823 14.2506
Si 24.2788 14.1458 14.1725
Si 21.996 11.8906 14.1075
O 25.1155 13.9373 15.5967
O 23.4324 15.5871 14.0731
O 25.188 13.7739 12.8304
O 21.7307 11.3015 15.5908
O 20.7732 12.8202 13.6531
O 22.171 10.8668 12.8713
O 17.1291 18.255 16.7358
Si 18.232 19.4679 16.8693
Si 16.5272 16.7293 16.7853
O 20.1605 16.048 16.9604
Si 20.8493 17.5454 16.8921
Si 18.9885 14.9098 16.8295
O 21.7206 17.4829 18.3096
O 19.7749 18.8253 16.8082
O 21.8061 17.3575 15.5451
O 18.8887 14.2556 18.3084
O 17.5834 15.5774 16.4331
O 19.3294 13.9669 15.5596
O 12.7356 20.6504 14.1838
Si 13.786 21.9191 14.2682
Si 12.2311 19.099 14.327
O 16.0782 18.9112 14.4152
Si 16.6761 20.4371 14.2879
Si 14.9577 17.7139 14.3758
O 17.7334 20.3968 15.577
O 15.4095 21.5265 14.3646
O 17.5716 20.4792 12.8882
O 15.4489 16.7394 15.5745
O 13.4658 18.1639 14.749
O 15.0214 17.1514 12.8587
O 8.38264 22.1047 16.9078
Si 9.21782 23.5246 16.9911
Si 8.11377 20.4944 17.0466
O 11.9342 20.9127 17.1389
Si 12.2968 22.5108 17.0063
Si 11.0261 19.5468 17.086
O 13.3421 22.6441 18.2969
O 10.8812 23.3938 17.0801
O 13.1779 22.691 15.6095
O 11.6608 18.6736 18.296
O 9.47408 19.7369 17.4405
O 11.2072 18.9906 15.5759
O 4.24933 22.8099 14.0177
Si 4.70728 24.3853 14.1345
Si 4.37968 21.1746 14.0584
O 7.94329 22.1962 14.2196
Si 7.89893 23.8423 14.1454
Si 7.40433 20.6536 14.0888
O 8.68477 24.1967 15.5667
O 6.36929 24.5036 14.0518
O 8.8474 24.1042 12.8067
O 7.62639 20.0307 15.5705
O 5.8423 20.6112 13.7107
O 8.15629 19.9599 12.8324
O -0.327049 23.0264 16.7436
Si -0.102749 24.6513 16.8661
Si 0.0251868 21.4239 16.7927
O 3.40309 22.9364 16.9525
Si 3.13069 24.5607 16.8766
Si 3.09608 21.3308 16.8227
O 3.86035 25.022 18.2967
O 1.52494 25.0038 16.7863
O 4.02742 24.958 15.5363
O 3.42555 20.7442 18.2999
O 1.55318 21.0574 16.4588
O 3.93384 20.7555 15.5598
O -5.28904 22.6005 14.1945
Si -5.13671 24.2401 14.2746
Si -4.86313 21.0229 14.328
O -1.57449 22.9792 14.4073
Si -1.92075 24.5822 14.2843
Si -1.80968 21.3555 14.3585
O -1.03117 25.1414 15.5749
O -3.57059 24.8064 14.3669
O -1.20807 25.1136 12.883
O -0.869069 20.8313 15.5738
O -3.30456 20.8748 14.6972
O -1.3894 20.9167 12.8554
O -9.76275 21.5268 16.9309
Si -9.83758 23.1719 17.0084
Si -9.12405 20.0223 17.062
O -6.13443 22.4038 17.1359
Si -6.69728 23.9445 17.0152
Si -6.14261 20.7632 17.0878
O -5.89345 24.6198 18.3061
O -8.36218 23.9444 17.0986
O -6.06191 24.5668 15.6141
O -5.14268 20.3728 18.306
O -7.55833 20.0832 17.4256
O -5.6586 20.3838 15.5875
O -13.6811 19.9819 14.03
Si -14.1333 21.5577 14.1564
Si -12.7016 18.6659 14.0794
O -10.2166 21.3904 14.245
Si -11.129 22.7615 14.1641
Si -9.85043 19.7987 14.1094
O -10.6452 23.4696 15.5873
O -12.7789 22.5278 14.0746
O -10.465 23.4804 12.8223
O -9.32041 19.3785 15.5848
O -11.1598 18.9463 13.7315
O -8.84885 19.6035 12.8507
O -17.7019 17.7696 16.7632
Si -18.3782 19.2628 16.8907
Si -16.5353 16.6165 16.8105
O -14.4678 19.6649 16.9809
Si -15.5736 20.8856 16.8988
Si -13.8777 18.1425 16.8431
O -15.1929 21.6532 18.3231
O -17.174 20.4162 16.8093
O -15.016 21.6902 15.5563
O -13.3032 17.7917 18.3194
O -15.0556 17.122 16.4526
O -12.8573 18.0901 15.5862
O -21.6707 14.7434 14.2385
Si -22.4224 16.2094 14.3056
Si -20.4507 13.6566 14.3695
O -18.7259 17.0704 14.4308
Si -19.8861 18.23 14.3112
Si -18.058 15.5722 14.3915
O -19.4292 19.1793 15.6013
O -21.3998 17.5284 14.3916
O -19.5599 19.0622 12.9113
O -16.9804 15.6298 15.6026
O -19.0694 14.3811 14.7537
O -17.4757 15.4145 12.8872
O -24.7867 11.3726 16.9642
Si -25.7543 12.7051 17.0359
Si -23.4077 10.5001 17.1039
O -22.238 14.1484 17.1658
Si -23.5694 15.1063 17.0477
Si -21.3539 12.7672 17.1369
O -23.2639 16.1143 18.3389
O -24.9519 14.1697 17.125
O -23.3761 15.9801 15.648
O -20.2949 12.9879 18.3437
O -22.1774 11.4454 17.5139
O -20.7661 12.6888 15.6292
O -27.0438 7.86571 14.0946
Si -28.3355 8.87562 14.1925
Si -25.4758 7.39136 14.1683
O -25.0385 11.0478 14.2665
Si -26.586 11.6159 14.1936
Si -23.8182 9.96174 14.1412
O -26.5892 12.4828 15.6141
O -27.7921 10.457 14.1146
O -26.4525 12.5857 12.8477
O -23.1582 9.90119 15.6196
O -24.4024 8.51372 13.7745
O -22.8877 10.363 12.8794
O -28.8892 3.65907 16.8141
Si -30.3402 4.44065 16.8443
Si -27.2639 3.40869 16.7681
O -27.4892 7.08948 17.0527
Si -29.0948 7.43906 16.9208
Si -26.0894 6.24721 16.9234
O -29.2545 8.29574 18.3413
O -30.0831 6.09394 16.7981
O -29.1177 8.4407 15.5934
O -25.4371 6.32106 18.4035
O -26.3407 4.70445 16.5591
O -25.2496 6.8424 15.6739
O -30.3233 -0.907512 14.3244
Si -31.8858 -0.391097 14.2558
Si -28.8241 -1.00502 15.0774
O -29.3671 2.3606 14.4706
Si -30.9645 2.71922 14.2397
Si -27.8464 1.74813 14.2959
O -31.1291 3.76059 15.5387
O -31.8425 1.28863 14.2666
O -31.1832 3.61069 12.8521
O -27.0098 2.53207 15.4338
O -27.8147 0.236334 14.8316
O -27.385 1.94651 12.76
O -29.6295 -4.82787 15.8888
Si -31.247 -5.06097 16.1916
Si -28.2111 -3.99543 15.8824
O -30.909 -2.34052 17.7553
Si -32.3174 -2.06542 16.9507
Si -29.3639 -1.91102 17.7473
O -32.5624 -1.05906 18.3133
O -32.1925 -3.68619 16.425
O -32.516 -1.06785 15.6362
O -28.6274 -1.63419 19.1286
O -28.6485 -2.45608 16.1925
O -29.3428 -0.640365 16.6498
O -27.3145 -8.55889 13.5967
Si -28.8297 -9.17941 13.4621
Si -26.0849 -7.49794 13.4009
O -29.2243 -5.38123 13.1658
Si -30.5071 -6.39801 13.3878
Si -27.6621 -4.88003 13.0404
O -31.3437 -5.92144 14.7537
O -30.0107 -7.99676 13.3714
O -31.3505 -5.8814 12.0509
O -27.4434 -4.17358 14.4782
O -26.5895 -6.06496 12.8712
O -27.5422 -3.91708 11.7431
O -24.613 -11.8478 16.4803
Si -25.9114 -12.842 16.2834
Si -23.5725 -10.5863 16.3182
O -26.9209 -9.11235 16.2249
Si -27.9924 -10.3706 16.2692
Si -25.5382 -8.22603 16.3057