2688
 Atoms. Timestep: 29235
O 10.9931 2.8703 6.46386
Si 12.6176 3.04035 6.64253
Si 9.4243 3.27922 6.7093
O 10.8455 0.618011 8.59903
Si 12.4404 0.340138 8.302
Si 9.22409 0.718718 8.36046
O 12.9544 0.295653 9.88256
O 7.47566 12.6137 6.75261
O 6.16967 -11.792 7.2565
O 8.64837 0.517137 9.87362
O 6.76262 9.48132 5.39711
O 3.61766 -9.43375 5.36226
O 10.5144 5.21888 0.959304
Si 12.1242 5.73092 1.7695
Si 9.0396 5.3717 2.25031
O 10.8094 2.6928 3.71974
Si 12.4136 3.04293 3.48893
Si 9.15577 2.72478 3.71954
O 13.0296 3.09242 5.03175
O 4.647 13.142 1.80709
O 9.02393 -10.5648 2.50292
O 8.74399 2.92945 5.27837
O 4.61767 9.04833 1.32949
O 5.97006 -7.51703 2.07815
O 11.0085 7.80348 6.48113
Si 12.5295 8.43148 6.44292
Si 10.0187 6.43151 6.57164
O 10.9427 5.91156 8.03507
Si 12.5903 5.82565 8.22107
Si 9.58804 5.24705 9.05663
O 12.8129 5.81391 9.86077
O 1.93578 13.0222 6.63536
O 10.9381 -8.99106 7.16173
O 8.53798 5.33033 10.3183
O 1.88657 8.71 6.49992
O 7.60957 -6.03913 7.34115
O 9.77609 9.19956 1.70159
Si 10.7799 10.5028 1.64375
Si 8.38434 8.41181 2.14562
O 11.3157 8.43262 3.65231
Si 12.8456 8.67186 3.21862
Si 10.3721 7.20101 3.8989
O 13.1637 8.66892 4.89754
O -0.8715 12.9275 1.84613
O 12.4474 -6.29398 2.48404
O 9.40257 7.56708 5.3137
O -0.033538 8.73821 2.04477
O 8.74647 -5.22892 4.81092
O 9.10366 10.3627 5.68054
Si 8.84707 11.9573 6.08426
Si 8.43886 8.87128 5.46553
O 9.62629 9.23467 8.57858
Si 10.7156 10.4184 8.1318
Si 8.32736 8.1762 8.55991
O 11.0849 10.8516 9.68821
O -3.5464 12.532 6.82877
O 12.5328 -3.85943 7.36102
O 8.01146 7.92579 10.2043
O -2.85382 8.49385 7.27322
O 7.74304 -2.72152 7.1231
O 5.8272 11.1626 0.462998
Si 6.01729 12.7232 0.968456
Si 6.01824 9.54554 0.618601
O 7.11096 11.4739 3.49774
Si 8.46101 12.3 2.98122
Si 6.38819 10.0142 3.69851
O 8.90769 12.6238 4.55986
O -6.34809 11.6641 1.8708
O 12.8163 -0.92335 2.74486
O 7.83954 8.98556 3.78787
O -4.96819 8.15439 2.5798
O 8.83632 -1.17173 2.27666
O 3.03555 10.8948 5.78677
Si 3.2753 12.5329 5.77469
Si 3.18041 9.25128 5.65921
O 5.68278 10.907 7.60252
Si 5.98156 12.5061 7.45901
Si 5.95894 9.38731 7.03689
O 6.02165 13.1525 8.98763
O -8.57255 10.6206 6.5957
O 13.0185 1.63833 7.44195
O 6.64851 8.96303 8.73987
O -5.42765 8.18422 7.16836
O 8.90332 2.20908 7.80864
O 0.585147 10.9293 0.801164
Si 0.524688 12.572 1.0076
Si 0.942093 9.31915 0.887266
O 3.03125 11.0465 2.40717
Si 3.25876 12.6616 2.58096
Si 3.54746 9.4827 2.54067
O 3.25917 13.0422 4.1949
O -10.9604 8.57411 1.6761
O 12.7125 4.41554 2.6131
O 3.16665 8.86375 4.05767
O -9.00007 5.49419 1.1633
O 8.57226 4.07403 3.05859
O -1.80168 10.7026 5.94794
Si -2.15826 12.3023 5.95442
Si -2.0874 9.08124 5.91436
O 0.749914 10.8575 7.51955
Si 0.595667 12.5085 7.47454
Si 0.6475 9.20433 7.44549
O 0.541042 13.0381 9.04616
O -12.771 6.53374 6.51057
O 13.1031 7.18111 7.39557
O 0.775184 8.73402 9.00626
O -10.1252 6.33689 5.93429
O 10.7498 6.10692 5.1043
O -4.11337 10.3091 1.13413
Si -4.83044 11.7786 1.20447
Si -3.95788 8.72446 1.48944
O -1.47359 10.7771 2.93422
Si -2.10414 12.3026 2.78534
Si -1.32297 9.13926 2.9324
O -2.2072 12.7904 4.37042
O -13.517 3.79713 1.59229
O 12.1813 9.98555 2.39707
O -1.42817 8.6296 4.46873
O -9.87558 3.09306 0.816764
O 9.02258 7.0306 2.83942
O -5.99998 10.0947 5.40893
Si -7.234 11.1322 5.77183
Si -5.24395 8.65877 5.5762
O -4.38221 10.3489 8.21912
Si -4.80154 11.8669 7.68492
Si -4.19451 8.71137 8.16753
O -4.92565 12.3446 9.27876
O -13.8523 1.08272 6.52707
O 10.0124 11.6357 7.24547
O -4.14387 8.12342 9.64948
O -9.56523 1.11144 6.45849
O 7.62486 8.69047 7.01754
O -8.51291 8.10162 0.59676
Si -9.67394 9.24256 0.829313
Si -7.8621 6.59884 0.707222
O -7.39255 9.22322 2.89211
Si -7.57523 10.8435 2.63739
Si -6.48851 7.87801 3.02416
O -7.67202 11.4476 4.18989
O -13.5518 -1.77366 1.77925
O 7.42165 12.9688 1.83407
O -6.04731 7.72117 4.55665
O -9.29364 -1.6299 1.53773
O 4.78339 9.92882 3.5563
O -9.01538 8.42065 5.80715
Si -11.5104 7.34864 5.79274
Si -8.65362 6.88776 5.31267
O -8.01865 8.4962 7.87133
Si -9.35631 9.29381 7.23428
Si -6.81644 7.38047 7.6371
O -9.91436 9.57431 8.82902
O -13.2473 -4.36649 6.80598
O 4.68796 12.9793 6.5298
O -6.97329 6.50924 8.99205
O -9.24084 -3.42156 7.02577
O 4.53558 8.8016 6.46403
O -11.4515 5.05639 0.15941
Si -12.984 5.13972 0.768444
Si -9.89309 4.56263 0.1147
O -10.8014 6.00455 2.84777
Si -11.683 7.36493 2.58798
Si -9.32917 5.32509 2.7927
O -11.8959 7.72601 4.20947
O -12.5135 -7.2117 2.16811
O 1.86775 13.1193 1.80353
O -8.48478 6.22514 3.84479
O -8.56747 -6.54879 4.23337
O 2.38012 8.93726 1.51903
O -11.7784 2.0225 5.48577
Si -13.3888 2.39849 5.60849
Si -10.1409 2.16534 5.37371
O -11.657 4.54519 7.24898
Si -13.1849 5.10626 7.26512
Si -10.1503 4.86945 6.74538
O -13.6177 5.25169 8.85949
O -11.3121 -9.51571 7.05218
O -0.815823 12.8999 6.71199
O -9.44326 4.74827 8.20238
O -8.84778 -5.88669 6.91937
O -0.740644 8.65059 6.7951
O -11.5427 -0.509201 0.680002
Si -13.1809 -0.399363 0.905099
Si -9.89972 -0.345784 0.754164
O -11.6206 2.1965 2.66452
Si -13.229 2.39696 2.44319
Si -10.0219 2.32641 2.29128
O -13.8175 2.42451 4.00037
O -9.8295 -11.8822 2.21417
O -3.60569 12.4782 2.09025
O -9.64953 1.89504 3.85497
O -7.07926 -9.13737 1.02394
O -2.49462 8.45404 2.07458
O -11.5391 -2.48518 5.80223
Si -13.0926 -2.99476 5.87081
Si -9.93795 -2.80915 5.65736
O -11.663 -0.0815797 7.4818
Si -13.3101 -0.244676 7.3757
Si -10.019 -0.177893 7.32707
O -13.7493 -0.34672 8.97532
O -7.10414 -12.9042 7.08989
O -6.20658 11.9614 6.79965
O -9.4266 -0.222099 8.83836
O -5.77157 -8.99168 6.00703
O -3.62875 8.7826 5.28799
O -10.7768 -5.78549 0.943252
Si -12.3932 -5.83042 1.24996
Si -9.19662 -5.44932 1.24023
O -11.3433 -2.59578 2.75514
Si -12.9274 -3.02295 2.69701
Si -9.70969 -2.74576 2.63393
O -13.4908 -3.10538 4.26086
O -4.50568 -13.2063 2.25813
O -8.91416 10.4775 1.67752
O -9.33481 -2.45525 4.18157
O -3.6298 -10.0835 1.04816
O -7.0113 6.7157 2.0655
O -10.3634 -7.31537 5.66635
Si -11.6769 -8.15056 6.16667
Si -9.51131 -5.93449 5.39515
O -11.0264 -4.91264 8.12855
Si -12.5115 -5.53172 7.7488
Si -9.40136 -4.7247 7.96196
O -12.9787 -5.80347 9.32479
O -1.70802 -13.1536 7.00415
O -10.8238 8.62879 6.63538
O -8.73994 -4.90961 9.41842
O -1.24434 -9.28014 6.46016
O -7.42819 6.63494 6.33685
O -9.63427 -9.42485 1.1354
Si -10.6365 -10.7163 1.35798
Si -8.43345 -8.90707 0.160408
O -10.0832 -8.39235 3.09253
Si -11.7567 -8.40001 3.04782
Si -8.56061 -7.74702 3.1272
O -12.2182 -8.47073 4.63279
O 1.04117 -13.011 2.1767
O -12.8235 6.50288 1.71647
O -8.07575 -8.28236 6.27473
O 0.593761 -8.7729 1.90249
O -9.35565 3.70798 2.95784
O -7.42308 -10.8547 5.5467
Si -8.23791 -12.1498 6.14028
Si -7.21414 -9.26266 5.27463
O -8.93709 -9.80589 8.50766
Si -10.28 -10.5284 7.88414
Si -7.85658 -7.10489 7.41117
O -10.8783 -10.9948 9.36872
O 3.67303 -12.7716 7.19919
O -13.7687 3.83296 6.36305
O -8.30936 -7.55568 8.90332
O 4.31256 -8.10871 7.10658
O -9.69818 3.65578 5.79399
O -5.77444 -10.9669 1.25248
Si -5.83715 -12.6827 1.41445
Si -4.85419 -10.3022 67.3873
O -7.52389 -10.8839 3.16879
Si -8.44088 -12.2447 3.04029
Si -6.48479 -9.82919 2.40084
O -8.57656 -12.7134 4.61785
O 6.56073 -11.7651 2.46198
O -13.6563 0.999185 1.65995
O -7.39529 -8.90171 3.60306
O 5.82588 -7.67746 4.7215
O -9.45206 0.960189 1.59628
O -3.22639 -11.0463 6.11124
Si -3.05886 -12.6983 6.16506
Si -2.7061 -9.5073 5.78479
O -5.02558 -11.3773 8.36622
Si -5.66432 -12.8295 7.91292
Si -5.05899 -8.21724 7.28793
O -5.80921 -13.2846 9.50298
O 8.60094 -10.545 7.29563
O -13.7087 -1.65119 6.60948
O -5.09719 -8.90819 8.77371
O 5.99066 -8.54404 8.10322
O -9.4793 -1.45138 6.48492
O -0.507166 -11.0466 1.10716
Si -0.371776 -12.6845 1.35933
Si -0.681095 -9.39463 1.11094
O -2.97293 -11.2308 3.1911
Si -3.07637 -12.8465 3.01564
Si -3.34164 -9.71416 2.68164
O -3.03674 -13.2747 4.61354
O 10.9007 -8.56476 2.32951
O -13.0533 -4.51824 2.00808
O -2.7971 -9.17527 4.17726
O 8.72473 -5.81399 1.52491
O -9.1332 -4.2169 2.28447
O 1.77924 -11.2136 6.0394
Si 2.33164 -12.7331 6.21867
Si 2.06597 -9.63807 5.80939
O -0.133221 -11.1706 8.04309
Si -0.333583 -12.7936 7.84267
Si -0.247384 -9.56173 7.71972
O -0.353583 -13.2596 9.43423
O 12.495 -6.62048 7.39141
O -12.5243 -7.00287 6.99434
O -0.631473 -8.94888 9.17558
O 8.80267 -4.52998 6.80722
O -10.1039 -4.42396 5.1894
O 5.0844 -10.0861 1.9747
Si 5.10814 -11.7217 1.64188
Si 4.65451 -8.49439 1.89115
O 2.16521 -10.7863 2.64164
Si 2.34078 -12.3943 3.01765
Si 1.82432 -9.19078 2.86709
O 2.44381 -12.9953 4.57373
O 12.943 -3.60291 2.63521
O -11.7237 -9.83515 2.22695
O 1.42833 -9.13215 4.42231
O 8.59164 -3.75782 3.03974
O -8.46508 -6.78345 1.81517
O 6.25744 -9.44094 6.2775
Si 7.19829 -10.7938 6.44383
Si 4.94164 -8.58071 5.70276
O 4.08693 -10.4091 8.33501
Si 4.75656 -11.8881 8.10348
Si 4.41878 -8.83031 8.54967
O 5.12301 -12.226 9.69128
O 12.6552 -1.11354 7.53765
O -9.59848 -11.7057 6.954
O 4.16336 -8.24006 10.0072
O 8.71835 -0.330699 7.22152
O -6.2267 -7.07327 7.35246
O 8.35323 -8.48815 1.24603
Si 9.6947 -9.39443 1.54832
Si 7.47672 -7.1096 1.4285
O 7.26578 -9.25028 3.47965
Si 7.63152 -10.8601 3.34643
Si 7.35062 -7.77112 4.21736
O 7.62723 -11.2982 4.93342
O 12.9287 1.74114 2.61423
O -7.26349 -13.0002 2.16894
O 8.32517 -7.40347 5.45947
O 8.65721 1.42631 2.86724
O -4.9568 -9.36988 2.85979
O 10.509 -6.51958 6.5517
Si 11.6491 -7.68915 6.42641
Si 9.01227 -6.07203 6.16578
O 8.6545 -8.13487 8.11298
Si 9.61154 -9.464 8.03832
Si 7.1706 -7.42768 8.13214
O 10.0047 -9.82249 9.60793
O 13.0471 4.4091 7.47915
O -4.3787 -13.2802 6.97734
O 6.97565 -6.78023 9.57799
O 9.43666 4.81754 7.31021
O -3.60081 -8.39238 6.58158
O 10.8533 -4.5033 1.31862
Si 12.4287 -4.85244 1.69267
Si 9.61343 -5.01072 0.346834
O 10.396 -6.05101 3.45467
Si 11.4403 -7.32569 3.29433
Si 8.90748 -5.36723 3.20673
O 11.9471 -7.7991 4.80111
O 12.8786 7.19311 2.34915
O -1.70789 -13.241 2.17007
O 7.79971 -6.70368 3.0563
O 10.7037 5.95131 2.80505
O -2.07375 -9.01663 1.86296
O 10.4026 -2.4064 6.78157
Si 12.0535 -2.41181 6.6942
Si 8.90975 -1.77018 6.47997
O 10.6594 -5.40733 8.75454
Si 12.2346 -5.22815 8.25101
Si 7.56792 -4.16433 7.89324
O 12.9054 -5.05551 9.75453
O 12.0093 9.75807 7.31668
O 1.00214 -13.3034 7.0173
O 8.40339 -4.16903 9.28902
O 9.11836 6.72796 8.10191
O 1.18441 -9.134 7.0752
O 10.8006 0.604512 1.65548
Si 12.4273 0.384597 1.82006
Si 9.17915 0.328982 1.77338
O 10.7757 -2.61056 3.34237
Si 12.3747 -2.31504 3.50681
Si 9.17898 -2.28109 3.40418
O 12.6428 -2.33159 5.14056
O 9.87501 11.7171 2.32257
O 3.85922 -12.5252 2.36512
O 8.70568 -1.71565 4.86099
O 6.88585 9.33559 2.06725
O 3.22687 -8.37285 2.67302
O 10.9931 2.8703 16.0965
Si 12.6176 3.04035 16.2752
Si 9.4243 3.27923 16.3419
O 10.8455 0.618008 18.2317
Si 12.4404 0.340138 17.9346
Si 9.2241 0.71872 17.9931
O 12.9544 0.295655 19.5152
O 7.47567 12.6137 16.3852
O 6.16967 -11.792 16.8891
O 8.64837 0.517137 19.5062
O 6.76263 9.48133 15.0297
O 3.61766 -9.43376 14.9949
O 10.5144 5.21889 10.5919
Si 12.1242 5.73092 11.4021
Si 9.0396 5.3717 11.8829
O 10.8094 2.69281 13.3524
Si 12.4136 3.04293 13.1216
Si 9.15578 2.72478 13.3522
O 13.0296 3.09242 14.6644
O 4.64701 13.142 11.4397
O 9.02393 -10.5648 12.1356
O 8.744 2.92946 14.911
O 4.61767 9.04833 10.9621
O 5.97006 -7.51703 11.7108
O 11.0085 7.80349 16.1138
Si 12.5295 8.43149 16.0756
Si 10.0187 6.43152 16.2043
O 10.9427 5.91157 17.6677
Si 12.5903 5.82565 17.8537
Si 9.58804 5.24706 18.6893
O 12.8129 5.8139 19.4934
O 1.93577 13.0222 16.268
O 10.9381 -8.99105 16.7944
O 8.53799 5.33034 19.9509
O 1.88655 8.71001 16.1325
O 7.60957 -6.03913 16.9738
O 9.77609 9.19956 11.3342
Si 10.7799 10.5028 11.2764
Si 8.38434 8.41181 11.7783
O 11.3157 8.43262 13.2849
Si 12.8456 8.67186 12.8513
Si 10.3721 7.20101 13.5315
O 13.1637 8.66892 14.5302
O -0.871502 12.9275 11.4788
O 12.4474 -6.29398 12.1167
O 9.40258 7.56709 14.9463
O -0.0335339 8.73822 11.6774
O 8.74647 -5.22892 14.4435
O 9.10367 10.3627 15.3132
Si 8.84708 11.9573 15.7169
Si 8.43888 8.8713 15.0982
O 9.62631 9.23467 18.2112
Si 10.7157 10.4184 17.7644
Si 8.32737 8.17621 18.1925
O 11.0849 10.8516 19.3209
O -3.54641 12.532 16.4614
O 12.5328 -3.85942 16.9937
O 8.01146 7.92581 19.8369
O -2.85384 8.49382 16.9058
O 7.74305 -2.72152 16.7557
O 5.8272 11.1626 10.0956
Si 6.0173 12.7232 10.6011
Si 6.01825 9.54554 10.2512
O 7.11096 11.4739 13.1304
Si 8.46102 12.3 12.6139
Si 6.3882 10.0142 13.3311
O 8.9077 12.6238 14.1925
O -6.3481 11.664 11.5034
O 12.8163 -0.92335 12.3775
O 7.83956 8.98557 13.4205
O -4.96819 8.15438 12.2124
O 8.83632 -1.17173 11.9093
O 3.03558 10.8948 15.4194
Si 3.2753 12.5329 15.4073
Si 3.1804 9.25128 15.2918
O 5.68278 10.907 17.2351
Si 5.98157 12.5061 17.0916
Si 5.95894 9.38732 16.6695
O 6.02166 13.1525 18.6203
O -8.57256 10.6207 16.2283
O 13.0185 1.63833 17.0746
O 6.64852 8.96305 18.3725
O -5.42766 8.18422 16.801
O 8.90333 2.20908 17.4413
O 0.58514 10.9293 10.4338
Si 0.52469 12.572 10.6402
Si 0.942095 9.31916 10.5199
O 3.03126 11.0465 12.0398
Si 3.25876 12.6616 12.2136
Si 3.54746 9.48271 12.1733
O 3.25917 13.0422 13.8275
O -10.9604 8.57412 11.3088
O 12.7125 4.41554 12.2457
O 3.16665 8.86376 13.6903
O -9.00007 5.49419 10.7959
O 8.57227 4.07402 12.6912
O -1.80168 10.7026 15.5806
Si -2.15826 12.3023 15.5871
Si -2.08743 9.08126 15.547
O 0.749978 10.8575 17.1522
Si 0.595666 12.5085 17.1072
Si 0.647484 9.20435 17.0781
O 0.541034 13.0381 18.6788
O -12.771 6.53378 16.1432
O 13.1031 7.18111 17.0282
O 0.775182 8.73403 18.6389
O -10.1252 6.33693 15.5669
O 10.7498 6.10692 14.7369
O -4.11337 10.3091 10.7668
Si -4.83044 11.7786 10.8371
Si -3.95788 8.72444 11.1221
O -1.47357 10.7771 12.5668
Si -2.10414 12.3026 12.418
Si -1.32297 9.13926 12.565
O -2.20719 12.7904 14.003
O -13.517 3.79715 11.225
O 12.1813 9.98555 12.0297
O -1.4282 8.62961 14.1014
O -9.87557 3.09306 10.4494
O 9.02259 7.0306 12.4721
O -6.00005 10.0947 15.0415
Si -7.23402 11.1323 15.4045
Si -5.24399 8.65881 15.2088
O -4.38221 10.3489 17.8517
Si -4.80154 11.8669 17.3176
Si -4.19451 8.71136 17.8002
O -4.92564 12.3446 18.9114
O -13.8524 1.08272 16.1597
O 10.0125 11.6358 16.8781
O -4.14384 8.12341 19.2821
O -9.56525 1.1115 16.0912
O 7.62487 8.69049 16.6502
O -8.5129 8.10162 10.2294
Si -9.67395 9.24256 10.462
Si -7.8621 6.59884 10.3399
O -7.39255 9.22322 12.5248
Si -7.57524 10.8435 12.27
Si -6.48851 7.87801 12.6568
O -7.67204 11.4477 13.8225
O -13.5518 -1.77364 11.4119
O 7.42165 12.9688 11.4667
O -6.04731 7.72119 14.1893
O -9.29363 -1.62987 11.1704
O 4.7834 9.92882 13.1889
O -9.01537 8.42067 15.4398
Si -11.5104 7.34868 15.4254
Si -8.65361 6.88777 14.9453
O -8.01865 8.49619 17.504
Si -9.35628 9.29383 16.8669
Si -6.81644 7.38045 17.2697
O -9.91434 9.57436 18.4616
O -13.2473 -4.3665 16.4386
O 4.68797 12.9793 16.1624
O -6.97329 6.50923 18.6247
O -9.24083 -3.42154 16.6584
O 4.53558 8.80161 16.0967
O -11.4515 5.05637 9.79205
Si -12.984 5.13973 10.4011
Si -9.89308 4.56262 9.74735
O -10.8014 6.00458 12.4805
Si -11.683 7.36495 12.2207
Si -9.32917 5.3251 12.4253
O -11.8959 7.72605 13.8421
O -12.5135 -7.21169 11.8008
O 1.86775 13.1193 11.4362
O -8.48478 6.22514 13.4774
O -8.56748 -6.54877 13.866
O 2.38012 8.93727 11.1517
O -11.7784 2.02254 15.1184
Si -13.3889 2.39849 15.2411
Si -10.1409 2.16538 15.0064
O -11.657 4.54521 16.8816
Si -13.1849 5.10627 16.8977
Si -10.1503 4.86949 16.378
O -13.6177 5.25168 18.4921
O -11.3121 -9.51572 16.6848
O -0.815828 12.8999 16.3446
O -9.44328 4.7483 17.835
O -8.84778 -5.88668 16.552
O -0.740683 8.65063 16.4278
O -11.5427 -0.509178 10.3126
Si -13.181 -0.399344 10.5377
Si -9.89972 -0.345764 10.3868
O -11.6207 2.19649 12.2972
Si -13.229 2.39697 12.0758
Si -10.0219 2.32642 11.9239
O -13.8175 2.42448 13.633
O -9.8295 -11.8822 11.8468
O -3.6057 12.4782 11.7229
O -9.64954 1.89507 13.4876
O -7.07927 -9.13736 10.6566
O -2.49462 8.45403 11.7072
O -11.5391 -2.48517 15.4349
Si -13.0925 -2.99476 15.5034
Si -9.93793 -2.80913 15.29
O -11.663 -0.0815486 17.1144
Si -13.3101 -0.24468 17.0083
Si -10.019 -0.177859 16.9597
O -13.7493 -0.346729 18.608
O -7.10415 -12.9042 16.7225
O -6.20658 11.9615 16.4323
O -9.42661 -0.222109 18.471
O -5.77157 -8.99166 15.6397
O -3.6288 8.78271 14.9206
O -10.7768 -5.78545 10.5759
Si -12.3932 -5.8304 10.8826
Si -9.19662 -5.4493 10.8729
O -11.3433 -2.59576 12.3878
Si -12.9274 -3.02294 12.3296
Si -9.70969 -2.74574 12.2666
O -13.4908 -3.10537 13.8935
O -4.50568 -13.2063 11.8908
O -8.91416 10.4775 11.3102
O -9.3348 -2.45524 13.8142
O -3.6298 -10.0835 10.6808
O -7.0113 6.7157 11.6982
O -10.3634 -7.31535 15.299
Si -11.6769 -8.15056 15.7993
Si -9.51132 -5.93447 15.0278
O -11.0264 -4.91263 17.7612
Si -12.5115 -5.53172 17.3814
Si -9.40135 -4.72469 17.5946
O -12.9787 -5.80346 18.9574
O -1.70803 -13.1536 16.6368
O -10.8238 8.62883 16.268
O -8.73994 -4.9096 19.0511
O -1.24434 -9.28015 16.0928
O -7.42819 6.63493 15.9695
O -9.63428 -9.42485 10.768
Si -10.6365 -10.7162 10.9906
Si -8.43345 -8.90707 9.79304
O -10.0832 -8.39234 12.7252
Si -11.7567 -8.40001 12.6805
Si -8.56062 -7.747 12.7598
O -12.2182 -8.47073 14.2654
O 1.04117 -13.011 11.8093
O -12.8235 6.50289 11.3491
O -8.07575 -8.28234 15.9074
O 0.593762 -8.7729 11.5351
O -9.35568 3.70799 12.5905
O -7.42308 -10.8547 15.1793
Si -8.23791 -12.1498 15.7729
Si -7.21414 -9.26264 14.9073
O -8.93709 -9.80587 18.1403
Si -10.28 -10.5284 17.5168
Si -7.85658 -7.10488 17.0438
O -10.8783 -10.9948 19.0014
O 3.67302 -12.7716 16.8318
O -13.7687 3.83298 15.9956
O -8.30935 -7.55567 18.536
O 4.31257 -8.10871 16.7392
O -9.69819 3.65583 15.4266
O -5.77444 -10.9669 10.8851
Si -5.83715 -12.6827 11.0471
Si -4.8542 -10.3022 9.59147
O -7.52389 -10.8839 12.8014
Si -8.44088 -12.2447 12.6729
Si -6.4848 -9.82918 12.0335
O -8.57657 -12.7134 14.2505
O 6.56073 -11.7652 12.0946
O -13.6564 0.999209 11.2926
O -7.39529 -8.90169 13.2357
O 5.82588 -7.67747 14.3541
O -9.45207 0.960204 11.2289
O -3.2264 -11.0463 15.7439
Si -3.05887 -12.6983 15.7977
Si -2.7061 -9.50731 15.4174
O -5.02558 -11.3773 17.9989
Si -5.66433 -12.8295 17.5455
Si -5.05899 -8.21724 16.9206
O -5.80921 -13.2846 19.1356
O 8.60095 -10.545 16.9283
O -13.7087 -1.6512 16.2421
O -5.09719 -8.90818 18.4063
O 5.99066 -8.54404 17.7359
O -9.4793 -1.45131 16.1175
O -0.507164 -11.0466 10.7398
Si -0.371777 -12.6845 10.992
Si -0.681095 -9.39463 10.7436
O -2.97294 -11.2308 12.8237
Si -3.07638 -12.8465 12.6483
Si -3.34164 -9.71416 12.3143
O -3.03674 -13.2747 14.2462
O 10.9007 -8.56477 11.9621
O -13.0533 -4.51822 11.6407
O -2.7971 -9.17527 13.8099
O 8.72472 -5.81399 11.1575
O -9.13318 -4.21688 11.9171
O 1.77924 -11.2136 15.672
Si 2.33164 -12.7331 15.8513
Si 2.06597 -9.63807 15.442
O -0.133217 -11.1706 17.6757
Si -0.333589 -12.7936 17.4753
Si -0.247384 -9.56174 17.3524
O -0.353585 -13.2596 19.0669
O 12.495 -6.62047 17.024
O -12.5243 -7.00288 16.627
O -0.631474 -8.94888 18.8082
O 8.80267 -4.52998 16.4398
O -10.1039 -4.42394 14.822
O 5.0844 -10.0861 11.6073
Si 5.10814 -11.7217 11.2745
Si 4.65451 -8.4944 11.5238
O 2.16521 -10.7863 12.2743
Si 2.34078 -12.3943 12.6503
Si 1.82432 -9.19078 12.4997
O 2.44381 -12.9953 14.2064
O 12.943 -3.60291 12.2678
O -11.7237 -9.83515 11.8596
O 1.42834 -9.13215 14.0549
O 8.59164 -3.75782 12.6724
O -8.46509 -6.78343 11.4478
O 6.25744 -9.44095 15.9101
Si 7.1983 -10.7938 16.0765
Si 4.94165 -8.58071 15.3354
O 4.08693 -10.4091 17.9676
Si 4.75657 -11.8881 17.7361
Si 4.41878 -8.83032 18.1823
O 5.12301 -12.226 19.3239
O 12.6552 -1.11354 17.1703
O -9.59848 -11.7057 16.5866
O 4.16336 -8.24007 19.6398
O 8.71836 -0.330699 16.8542
O -6.22669 -7.07326 16.9851
O 8.35323 -8.48815 10.8787
Si 9.6947 -9.39443 11.181
Si 7.47672 -7.10961 11.0611
O 7.26578 -9.25029 13.1123
Si 7.63152 -10.8601 12.9791
Si 7.35062 -7.77112 13.85
O 7.62723 -11.2982 14.5661
O 12.9287 1.74114 12.2469
O -7.26349 -13.0002 11.8016
O 8.32517 -7.40347 15.0921
O 8.65721 1.4263 12.4999
O -4.9568 -9.36987 12.4924
O 10.509 -6.51958 16.1843
Si 11.6491 -7.68915 16.059
Si 9.01227 -6.07203 15.7984
O 8.6545 -8.13487 17.7456
Si 9.61154 -9.464 17.671
Si 7.1706 -7.42768 17.7648
O 10.0047 -9.82249 19.2406
O 13.0471 4.4091 17.1118
O -4.37871 -13.2802 16.61
O 6.97565 -6.78023 19.2106
O 9.43667 4.81755 16.9428
O -3.6008 -8.39238 16.2142
O 10.8533 -4.5033 10.9513
Si 12.4287 -4.85245 11.3253
Si 9.61343 -5.01072 9.97947
O 10.396 -6.05102 13.0873
Si 11.4403 -7.32569 12.927
Si 8.90748 -5.36723 12.8394
O 11.9471 -7.79909 14.4337
O 12.8786 7.19312 11.9818
O -1.70789 -13.241 11.8027
O 7.79971 -6.70368 12.6889
O 10.7037 5.95131 12.4377
O -2.07375 -9.01663 11.4956
O 10.4026 -2.4064 16.4142
Si 12.0535 -2.41181 16.3268
Si 8.90976 -1.77018 16.1126
O 10.6594 -5.40733 18.3872
Si 12.2346 -5.22815 17.8836
Si 7.56792 -4.16433 17.5259
O 12.9054 -5.05551 19.3872
O 12.0093 9.75807 16.9493
O 1.00213 -13.3034 16.6499
O 8.40339 -4.16903 18.9217
O 9.11837 6.72797 17.7345
O 1.18441 -9.134 16.7078
O 10.8006 0.604515 11.2881
Si 12.4273 0.384597 11.4527
Si 9.17915 0.32898 11.406
O 10.7757 -2.61057 12.975
Si 12.3747 -2.31505 13.1394
Si 9.17898 -2.28109 13.0368
O 12.6428 -2.33159 14.7732
O 9.87501 11.7171 11.9552
O 3.85922 -12.5252 11.9978
O 8.70569 -1.71565 14.4936
O 6.88586 9.33559 11.6999
O 3.22687 -8.37285 12.3057
O 10.9931 2.8703 25.7291
Si 12.6176 3.04035 25.9078
Si 9.4243 3.27923 25.9746
O 10.8455 0.618011 27.8643
Si 12.4404 0.340141 27.5673
Si 9.22409 0.71872 27.6257
O 12.9544 0.295654 29.1478
O 7.47568 12.6137 26.0179
O 6.16967 -11.792 26.5218
O 8.64837 0.517138 29.1389
O 6.76264 9.48133 24.6624
O 3.61767 -9.43376 24.6275
O 10.5144 5.21889 20.2246
Si 12.1242 5.73092 21.0348
Si 9.0396 5.3717 21.5156
O 10.8094 2.6928 22.985
Si 12.4136 3.04293 22.7542
Si 9.15578 2.72478 22.9848
O 13.0296 3.09242 24.297
O 4.64701 13.142 21.0724
O 9.02393 -10.5648 21.7682
O 8.744 2.92945 24.5436
O 4.61768 9.04835 20.5948
O 5.97007 -7.51703 21.3434
O 11.0085 7.80348 25.7464
Si 12.5295 8.43148 25.7082
Si 10.0187 6.43151 25.8369
O 10.9427 5.91156 27.3003
Si 12.5903 5.82565 27.4863
Si 9.58804 5.24705 28.3219
O 12.8129 5.8139 29.126
O 1.93578 13.0222 25.9006
O 10.9381 -8.99105 26.427
O 8.53799 5.33033 29.5836
O 1.88657 8.71001 25.7652
O 7.60957 -6.03912 26.6064
O 9.7761 9.19956 20.9669
Si 10.7799 10.5028 20.909
Si 8.38435 8.41182 21.4109
O 11.3157 8.43262 22.9176
Si 12.8456 8.67187 22.4839
Si 10.3721 7.20101 23.1642
O 13.1637 8.66892 24.1628
O -0.871506 12.9275 21.1114
O 12.4474 -6.29398 21.7493
O 9.40258 7.56709 24.579
O -0.0335339 8.73822 21.31
O 8.74648 -5.22892 24.0762
O 9.10368 10.3627 24.9458
Si 8.84709 11.9573 25.3495
Si 8.43888 8.8713 24.7308
O 9.62631 9.23466 27.8438
Si 10.7157 10.4184 27.3971
Si 8.32737 8.1762 27.8252
O 11.0849 10.8516 28.9535
O -3.54641 12.532 26.094
O 12.5328 -3.85942 26.6263
O 8.01146 7.9258 29.4696
O -2.85383 8.49384 26.5385
O 7.74305 -2.72152 26.3884
O 5.82722 11.1627 19.7283
Si 6.0173 12.7232 20.2337
Si 6.01826 9.54556 19.8839
O 7.11097 11.474 22.763
Si 8.46102 12.3 22.2465
Si 6.38821 10.0142 22.9638
O 8.90771 12.6238 23.8251
O -6.34809 11.664 21.1361
O 12.8163 -0.923354 22.0101
O 7.83956 8.98557 23.0531
O -4.96819 8.15428 21.845
O 8.83632 -1.17173 21.5419
O 3.03557 10.8948 25.052
Si 3.27531 12.5329 25.04
Si 3.18041 9.25129 24.9245
O 5.68279 10.907 26.8678
Si 5.98158 12.5061 26.7243
Si 5.95895 9.38732 26.3021
O 6.02166 13.1525 28.2529
O -8.57257 10.6207 25.861
O 13.0185 1.63833 26.7072
O 6.64852 8.96304 28.0051
O -5.42766 8.18424 26.4336
O 8.90332 2.20908 27.0739
O 0.585122 10.9293 20.0665
Si 0.524684 12.572 20.2729
Si 0.942096 9.31916 20.1525
O 3.03125 11.0465 21.6724
Si 3.25876 12.6616 21.8462
Si 3.54747 9.48272 21.8059
O 3.25917 13.0422 23.4602
O -10.9604 8.57414 20.9414
O 12.7125 4.41554 21.8784
O 3.16667 8.86377 23.3229
O -9.00011 5.49421 20.4286
O 8.57227 4.07403 22.3239
O -1.80167 10.7026 25.2133
Si -2.15826 12.3024 25.2197
Si -2.08741 9.08127 25.1796
O 0.749954 10.8575 26.7848
Si 0.595673 12.5085 26.7398
Si 0.647502 9.20434 26.7108
O 0.541042 13.0381 28.3114
O -12.771 6.53376 25.7758
O 13.1031 7.18111 26.6608
O 0.775191 8.73402 28.2715
O -10.1252 6.33693 25.1995
O 10.7498 6.10692 24.3696
O -4.11337 10.309 20.3994
Si -4.83044 11.7786 20.4698
Si -3.95787 8.72442 20.7547
O -1.47357 10.7771 22.1995
Si -2.10414 12.3026 22.0506
Si -1.32296 9.13927 22.1977
O -2.20719 12.7904 23.6357
O -13.517 3.79715 20.8576
O 12.1813 9.98556 21.6623
O -1.42817 8.62962 23.734
O -9.87558 3.09308 20.082
O 9.02259 7.0306 22.1047
O -6.00003 10.0947 24.6742
Si -7.23402 11.1322 25.0371
Si -5.24396 8.6588 24.8415
O -4.38221 10.3489 27.4844
Si -4.80154 11.8669 26.9502
Si -4.19451 8.71137 27.4328
O -4.92566 12.3446 28.544
O -13.8524 1.08272 25.7923
O 10.0125 11.6357 26.5108
O -4.14386 8.12342 28.9147
O -9.56524 1.11148 25.7238
O 7.62487 8.69048 26.2828
O -8.51294 8.10162 19.862
Si -9.67395 9.24258 20.0946
Si -7.86213 6.59885 19.9725
O -7.39253 9.22322 22.1574
Si -7.57523 10.8435 21.9027
Si -6.48851 7.878 22.2894
O -7.67202 11.4476 23.4551
O -13.5518 -1.77364 21.0445
O 7.42165 12.9689 21.0994
O -6.0473 7.72118 23.8219
O -9.29363 -1.62987 20.803
O 4.7834 9.92884 22.8216
O -9.01541 8.42068 25.0724
Si -11.5104 7.34867 25.058
Si -8.65363 6.88778 24.5779
O -8.01867 8.49621 27.1366
Si -9.35633 9.29383 26.4995
Si -6.81646 7.38049 26.9024
O -9.91438 9.57434 28.0943
O -13.2473 -4.36649 26.0712
O 4.68798 12.9793 25.7951
O -6.97331 6.50925 28.2573
O -9.24083 -3.42154 26.291
O 4.53559 8.80162 25.7293
O -11.4516 5.05637 19.4247
Si -12.984 5.13973 20.0337
Si -9.89311 4.56264 19.38
O -10.8015 6.00459 22.113
Si -11.6831 7.36497 21.8532
Si -9.32922 5.32512 22.058
O -11.8959 7.72604 23.4747
O -12.5135 -7.21169 21.4334
O 1.86775 13.1193 21.0688
O -8.48482 6.22517 23.11
O -8.56747 -6.54878 23.4986
O 2.38013 8.93728 20.7843
O -11.7784 2.02252 24.751
Si -13.3889 2.39849 24.8738
Si -10.1409 2.16537 24.639
O -11.657 4.54522 26.5142
Si -13.1849 5.10627 26.5304
Si -10.1503 4.86949 26.0106
O -13.6177 5.25169 28.1247
O -11.3121 -9.51571 26.3174
O -0.815821 12.8999 25.9773
O -9.44328 4.74829 27.4676
O -8.84777 -5.88668 26.1846
O -0.740657 8.65062 26.0604
O -11.5427 -0.509166 19.9453
Si -13.1809 -0.399346 20.1704
Si -9.89972 -0.34576 20.0194
O -11.6206 2.19653 21.9298
Si -13.229 2.39698 21.7084
Si -10.0219 2.32643 21.5566
O -13.8175 2.4245 23.2656
O -9.8295 -11.8822 21.4794
O -3.6057 12.4782 21.3555
O -9.64954 1.89507 23.1202
O -7.07926 -9.13736 20.2892
O -2.49461 8.45402 21.3399
O -11.5391 -2.48517 25.0675
Si -13.0925 -2.99476 25.1361
Si -9.93794 -2.80914 24.9226
O -11.663 -0.0815585 26.7471
Si -13.3101 -0.244676 26.641
Si -10.019 -0.177868 26.5923
O -13.7493 -0.346723 28.2406
O -7.10415 -12.9042 26.3552
O -6.20659 11.9615 26.0649
O -9.42661 -0.222103 28.1036
O -5.77157 -8.99168 25.2723
O -3.62877 8.78267 24.5533
O -10.7768 -5.78546 20.2085
Si -12.3932 -5.8304 20.5152
Si -9.19662 -5.44931 20.5055
O -11.3433 -2.59576 22.0204
Si -12.9274 -3.02294 21.9623
Si -9.70969 -2.74574 21.8992
O -13.4908 -3.10537 23.5261
O -4.50568 -13.2063 21.5234
O -8.91416 10.4775 20.9428
O -9.33481 -2.45524 23.4468
O -3.6298 -10.0835 20.3134
O -7.01136 6.7157 21.3308
O -10.3634 -7.31536 24.9316
Si -11.6769 -8.15055 25.4319
Si -9.51131 -5.93447 24.6604
O -11.0264 -4.91263 27.3938
Si -12.5115 -5.53172 27.0141
Si -9.40134 -4.72469 27.2272
O -12.9787 -5.80346 28.5901
O -1.70803 -13.1536 26.2694
O -10.8239 8.62882 25.9006
O -8.73993 -4.9096 28.6837
O -1.24434 -9.28015 25.7254
O -7.42821 6.63496 25.6021
O -9.63427 -9.42484 20.4007
Si -10.6365 -10.7162 20.6233
Si -8.43345 -8.90706 19.4257
O -10.0832 -8.39234 22.3578
Si -11.7567 -8.4 22.3131
Si -8.56061 -7.747 22.3925
O -12.2182 -8.47072 23.8981
O 1.04117 -13.011 21.442
O -12.8235 6.50291 20.9817
O -8.07575 -8.28235 25.54
O 0.593764 -8.77291 21.1678
O -9.35569 3.70801 22.2231
O -7.42309 -10.8547 24.812
Si -8.23791 -12.1498 25.4055
Si -7.21414 -9.26265 24.5399
O -8.93708 -9.80587 27.7729
Si -10.28 -10.5284 27.1494
Si -7.85657 -7.10488 26.6764
O -10.8783 -10.9948 28.634
O 3.67302 -12.7716 26.4645
O -13.7688 3.83297 25.6283
O -8.30935 -7.55567 28.1686
O 4.31256 -8.10871 26.3718
O -9.6982 3.65582 25.0592
O -5.77444 -10.9669 20.5177
Si -5.83715 -12.6827 20.6797
Si -4.85419 -10.3022 19.2241
O -7.52389 -10.8839 22.4341
Si -8.44088 -12.2447 22.3056
Si -6.48479 -9.82918 21.6661
O -8.57657 -12.7134 23.8831
O 6.56073 -11.7652 21.7273
O -13.6564 0.999206 20.9252
O -7.39528 -8.9017 22.8683
O 5.82588 -7.67746 23.9868
O -9.45207 0.960217 20.8616
O -3.22639 -11.0463 25.3765
Si -3.05887 -12.6983 25.4303
Si -2.7061 -9.50731 25.0501
O -5.02558 -11.3773 27.6315
Si -5.66433 -12.8295 27.1782
Si -5.05899 -8.21725 26.5532
O -5.80922 -13.2846 28.7682
O 8.60095 -10.545 26.5609
O -13.7087 -1.6512 25.8748
O -5.09719 -8.90819 28.039
O 5.99066 -8.54404 27.3685
O -9.4793 -1.45133 25.7501
O -0.507164 -11.0466 20.3724
Si -0.371777 -12.6845 20.6246
Si -0.681094 -9.39464 20.3762
O -2.97294 -11.2308 22.4564
Si -3.07638 -12.8465 22.2809
Si -3.34164 -9.71417 21.9469
O -3.03674 -13.2747 23.8788
O 10.9007 -8.56477 21.5948
O -13.0533 -4.51822 21.2733
O -2.79709 -9.17528 23.4425
O 8.72473 -5.81399 20.7902
O -9.13319 -4.21689 21.5497
O 1.77924 -11.2136 25.3047
Si 2.33164 -12.7331 25.4839
Si 2.06597 -9.63808 25.0747
O -0.133215 -11.1706 27.3084
Si -0.333588 -12.7936 27.1079
Si -0.247382 -9.56174 26.985
O -0.353586 -13.2596 28.6995
O 12.495 -6.62047 26.6567
O -12.5243 -7.00287 26.2596
O -0.631474 -8.94888 28.4408
O 8.80267 -4.52998 26.0725
O -10.1039 -4.42394 24.4547
O 5.0844 -10.0861 21.24
Si 5.10814 -11.7217 20.9071
Si 4.65451 -8.4944 21.1564
O 2.16522 -10.7863 21.9069
Si 2.34078 -12.3943 22.2829
Si 1.82432 -9.19078 22.1324
O 2.44381 -12.9953 23.839
O 12.943 -3.60292 21.9005
O -11.7237 -9.83514 21.4922
O 1.42834 -9.13215 23.6876
O 8.59164 -3.75782 22.305
O -8.46508 -6.78343 21.0804
O 6.25744 -9.44094 25.5428
Si 7.19829 -10.7938 25.7091
Si 4.94165 -8.58071 24.968
O 4.08693 -10.4091 27.6003
Si 4.75656 -11.8881 27.3687
Si 4.41878 -8.83031 27.8149
O 5.12301 -12.226 28.9565
O 12.6552 -1.11353 26.8029
O -9.59848 -11.7057 26.2193
O 4.16336 -8.24006 29.2724
O 8.71835 -0.330697 26.4868
O -6.22669 -7.07326 26.6177
O 8.35324 -8.48815 20.5113
Si 9.6947 -9.39443 20.8136
Si 7.47673 -7.10961 20.6938
O 7.26578 -9.25029 22.7449
Si 7.63152 -10.8601 22.6117
Si 7.35062 -7.77112 23.4826
O 7.62723 -11.2982 24.1987
O 12.9287 1.74114 21.8795
O -7.26349 -13.0002 21.4342
O 8.32517 -7.40347 24.7247
O 8.65721 1.42631 22.1325
O -4.9568 -9.36987 22.1251
O 10.509 -6.51958 25.817