2688
 Atoms. Timestep: 8540
O 61.7036 55.3795 2.73631
Si 63.0864 56.2723 2.73638
Si 60.6452 54.1231 2.73631
O 64.0816 52.6208 2.7364
Si 65.1686 53.8569 2.73628
Si 62.683 51.7592 2.73626
O 66.0556 53.5781 4.0997
O 64.4469 55.34 2.7363
O 66.0555 53.5781 1.37284
O 62.7295 50.8701 4.09973
O 61.3346 52.6571 2.73621
O 62.7296 50.8701 1.37278
O 58.4949 58.745 0.00958185
Si 59.8255 59.714 0.00949268
Si 57.5089 57.4311 0.00961469
O 61.0243 56.1239 0.00945382
Si 62.04 57.4192 0.00950298
Si 59.6762 55.1852 0.00942772
O 62.9413 57.1907 1.37293
O 61.2361 58.8594 0.00951727
O 62.9413 57.1907 4.09986
O 59.7726 54.3001 1.37289
O 58.2795 56.0061 0.00944079
O 59.7726 54.3001 4.09975
O 39.9172 72.6007 2.73658
Si 40.9277 73.9 2.73651
Si 39.333 71.0654 2.73654
O 43.0732 70.7821 2.73649
Si 43.6907 72.3079 2.73643
Si 42.0374 69.5071 2.73639
O 44.6199 72.338 4.09987
O 42.5197 73.4693 2.73646
O 44.6199 72.338 1.37298
O 42.3752 68.6832 4.09989
O 40.468 69.9093 2.73638
O 42.3753 68.6832 1.37293
O 35.7781 74.7191 0.00957877
Si 36.7144 76.0729 0.00957446
Si 35.2803 73.1536 0.00958978
O 39.0301 73.0793 0.00954994
Si 39.5618 74.6372 0.00961807
Si 38.0674 71.7483 0.00965064
O 40.4879 74.7189 1.37304
O 38.328 75.7316 0.00962171
O 40.4878 74.719 4.09993
O 38.4507 70.9446 1.37313
O 36.478 72.0625 0.00953155
O 38.4508 70.9445 4.10001
O 13.6747 81.6923 2.73678
Si 14.2021 83.2515 2.73674
Si 13.6276 80.0502 2.73677
O 17.2529 81.0116 2.73683
Si 17.3349 82.6556 2.7367
Si 16.6939 79.4668 2.73669
O 18.2026 82.9894 4.10012
O 15.8473 83.3678 2.73672
O 18.2025 82.9893 1.37325
O 17.2839 78.7997 4.10011
O 15.0795 79.3312 2.73675
O 17.2838 78.7998 1.37319
O -9.49435 82.305 0.0112082
Si 9.50877 83.9191 0.0098321
Si 9.11369 80.6907 0.00979222
O 12.6796 81.853 0.00988116
Si 12.6698 83.499 0.00984432
Si 12.2077 80.2795 0.00987834
O 13.5175 83.8805 1.3733
O 11.1448 84.1271 0.00980874
O 13.5176 83.8805 4.10023
O 12.8339 79.6463 1.37333
O 10.6034 80.0538 0.00986759
O 12.834 79.6463 4.10024
O -14.0975 81.6484 2.73692
Si -14.1135 83.2944 2.73675
Si -13.6012 80.0825 2.73669
O -10.495 82.1845 2.73548
Si -10.9592 83.7638 2.73671
Si -10.514 80.5419 2.73672
O -10.2496 84.3644 4.1002
O -12.5984 83.9462 2.73678
O -10.2496 84.3649 1.37334
O -9.73753 80.1064 4.10027
O -11.9936 79.8819 2.73676
O -9.73737 80.1061 1.37331
O -36.1704 74.5791 0.00987166
Si -18.7652 82.3776 0.00986234
Si -35.2595 73.2121 0.00990927
O -15.0901 81.4722 0.00957562
Si -15.6421 83.0229 0.00983984
Si -15.017 79.8311 0.00978878
O -14.9672 83.6625 1.37326
O -17.289 83.1131 0.00988699
O -14.9674 83.6626 4.10013
O -14.2172 79.4396 1.3732
O -16.4574 79.0894 0.00988845
O -14.2174 79.4395 4.10009
O -40.2983 72.4383 2.73684
Si -40.8571 73.9866 2.73679
Si -39.3122 71.1244 2.73674
O -37.0751 74.135 2.73678
Si -38.0351 75.4721 2.73673
Si -36.5503 72.5783 2.7368
O -37.5638 76.2736 4.10015
O -39.6425 75.1024 2.73671
O -37.5637 76.2736 1.37331
O -35.6734 72.4236 4.10025
O -37.7287 71.4665 2.73672
O -35.6734 72.4236 1.37335
O -58.7938 58.4687 0.00950213
Si -44.9447 71.5836 0.00985394
Si -57.4824 57.4794 0.0095264
O -41.1768 71.9439 0.009859
Si -42.2103 73.225 0.00989832
Si -40.5654 70.4192 0.00984182
O -41.7847 74.0517 1.37337
O -43.7946 72.7658 0.00980196
O -41.7846 74.0518 4.10026
O -39.6812 70.314 1.37331
O -41.6795 69.243 0.00980004
O -39.681 70.314 4.10023
O -61.9828 55.0842 2.73616
Si -63.0218 56.3609 2.73622
Si -60.618 54.1698 2.7362
O -59.5012 57.7503 2.73653
Si -60.8489 58.6953 2.73644
Si -58.4914 56.4546 2.73641
O -60.669 59.6075 4.09993
O -62.2439 57.8153 2.73631
O -60.6689 59.6076 1.373
O -57.6127 56.5984 4.09988
O -59.2363 55.0158 2.73628
O -57.6126 56.5985 1.373
O -74.8319 35.7925 0.00783418
Si -66.0861 52.7427 0.00917633
Si -63.5634 50.6897 0.00921983
O -62.6487 54.3273 0.00941047
Si -64.0474 55.1951 0.00932778
Si -61.5681 53.0901 0.00931599
O -63.9188 56.1161 1.37273
O -65.391 54.2385 0.00923609
O -63.9188 56.116 4.09968
O -60.6986 53.2831 1.37271
O -62.2313 51.6119 0.00922191
O -60.6987 53.283 4.09964
O -76.7266 31.5454 2.73442
Si -78.1285 32.4081 2.73446
Si -75.1367 31.1323 2.7345
O -75.2629 34.8808 2.73492
Si -76.8469 35.3284 2.73483
Si -73.8824 33.9905 2.73486
O -76.9778 36.249 4.0983
O -77.8738 34.0377 2.73467
O -76.9778 36.249 1.37138
O -73.1001 34.4163 4.09828
O -74.1113 32.3867 2.73467
O -73.1001 34.4162 1.3714
O -82.4923 9.09601 0.00682353
Si -79.8285 27.9819 0.00732617
Si -76.7699 26.8757 0.00727204
O -77.1059 30.6112 0.00765406
Si -78.7125 30.9694 0.00755611
Si -75.6776 29.7997 0.00761427
O -78.8946 31.8812 1.37103
O -79.6655 29.6232 0.00743737
O -78.8946 31.8812 4.09789
O -74.9204 30.2685 1.37099
O -75.8163 28.1855 0.00757956
O -74.9205 30.2684 4.09793
O -82.8768 4.46168 2.73396
Si -84.485 4.81262 2.73377
Si -81.2398 4.59753 2.73377
O -82.5978 8.09365 2.73374
Si -84.2407 7.99245 2.73372
Si -81.0006 7.70953 2.73376
O -84.6684 8.81813 4.09715
O -84.7833 6.43484 2.73371
O -84.6684 8.81814 1.3703
O -80.4029 8.36963 4.09716
O -80.6865 6.1202 2.73378
O -80.4029 8.36955 1.37031
O -83.0001 -0.186812 0.00684306
Si -84.6255 0.0730231 0.00689211
Si -81.3732 0.0409603 0.00692627
O -82.9257 3.45517 0.00666159
Si -84.5604 3.26165 0.00687102
Si -81.3095 3.16147 0.00686222
O -85.0339 4.06201 1.3703
O -85.0144 1.67593 0.00689486
O -85.0339 4.062 4.09722
O -80.7499 3.854 1.37032
O -80.9065 1.59234 0.00690831
O -80.7498 3.85403 4.09721
O -82.8612 -4.83467 2.73382
Si -84.4987 -4.667 2.7338
Si -81.2497 -4.5157 2.73373
O -82.9923 -1.19445 2.73387
Si -84.6134 -1.47976 2.73379
Si -81.3621 -1.39665 2.73382
O -85.1312 -0.707395 4.09725
O -84.9774 -3.08854 2.73382
O -85.1312 -0.707371 1.37033
O -80.8423 -0.673651 4.0972
O -80.8712 -2.94051 2.7339
O -80.8423 -0.673816 1.37036
O -82.4607 -9.46756 0.00689326
Si -84.1051 -9.39233 0.00698205
Si -80.8698 -9.05825 0.00706248
O -82.7967 -5.84037 0.00690713
Si -84.3991 -6.21661 0.0069142
Si -81.1576 -5.95045 0.0068372
O -84.9596 -5.47464 1.37036
O -84.6719 -7.84334 0.0069301
O -84.9596 -5.47467 4.09723
O -80.6794 -5.19942 1.37028
O -80.5806 -7.46424 0.00696706
O -80.6794 -5.19941 4.09718
O -81.7997 -14.0704 2.73414
Si -83.4456 -14.088 2.73393
Si -80.2344 -13.5721 2.7339
O -82.3396 -10.468 2.73389
Si -83.9183 -10.9338 2.73388
Si -80.6969 -10.4855 2.73396
O -84.5198 -10.2247 4.09732
O -84.0988 -12.5734 2.7339
O -84.5197 -10.2247 1.37041
O -80.2618 -9.70859 4.09733
O -80.0354 -11.9643 2.73391
O -80.2618 -9.70879 1.37047
O -80.8797 -18.6287 0.00713987
Si -82.5221 -18.7391 0.00721804
Si -79.3451 -18.0428 0.00724899
O -81.6222 -15.0626 0.00690577
Si -83.1722 -15.6167 0.00703183
Si -79.9812 -14.9873 0.00699975
O -83.8126 -14.9425 1.37052
O -83.2598 -17.2639 0.00710597
O -83.8126 -14.9425 4.09734
O -79.5906 -14.1873 1.37053
O -79.2373 -16.4264 0.00713395
O -79.5906 -14.1872 4.09735
O -79.7039 -23.1277 2.73413
Si -81.3374 -23.3307 2.73415
Si -78.2047 -22.4561 2.73415
O -80.6465 -19.6092 2.73436
Si -82.1628 -20.2499 2.73412
Si -79.0124 -19.4413 2.73415
O -82.8403 -19.613 4.09757
O -82.1573 -21.8994 2.73405
O -82.8403 -19.6129 1.3707
O -78.6676 -18.6205 4.09757
O -78.1884 -20.8361 2.73401
O -78.6677 -18.6205 1.37071
O -78.2755 -27.5531 0.00676205
Si -79.895 -27.8478 0.00697316
Si -76.8167 -26.7979 0.00701495
O -79.4155 -24.0934 0.00729082
Si -80.8932 -24.8187 0.00726604
Si -77.7935 -23.8336 0.00726091
O -81.6057 -24.2212 1.37074
O -80.7945 -26.4652 0.00716006
O -81.6057 -24.221 4.09767
O -77.4956 -22.9947 1.37076
O -76.8919 -25.1796 0.00715415
O -77.4957 -22.9944 4.09767
O -76.6001 -31.8909 2.73498
Si -78.2003 -32.2765 2.73425
Si -75.1861 -31.0547 2.73419
O -77.9333 -28.5008 2.73392
Si -79.3677 -29.3084 2.73387
Si -76.3285 -28.1501 2.73391
O -80.1127 -28.7518 4.09725
O -79.1762 -30.9467 2.73401
O -80.1126 -28.7519 1.37037
O -76.0784 -27.2955 4.09732
O -75.3525 -29.4432 2.73401
O -76.0784 -27.2957 1.37038
O -74.6833 -36.1275 0.00619738
Si -76.2592 -36.6027 0.00685668
Si -73.3186 -35.2131 0.00687609
O -76.2049 -32.818 0.00683777
Si -77.5915 -33.705 0.00731098
Si -74.6224 -32.3773 0.00725479
O -78.3666 -33.1915 1.37084
O -77.3084 -35.33 0.0071797
O -78.3669 -33.1914 4.09772
O -74.421 -31.5101 1.37076
O -73.5753 -33.6135 0.00716545
O -74.4209 -31.5099 4.09766
O -72.5309 -40.2494 2.73413
Si -74.0776 -40.8127 2.73419
Si -71.2197 -39.2598 2.73417
O -74.2364 -37.0311 2.73417
Si -75.571 -37.9947 2.73379
Si -72.6813 -36.502 2.73381
O -76.374 -37.5254 4.09713
O -75.1969 -39.6012 2.73397
O -76.3737 -37.5256 1.37024
O -72.529 -35.6244 4.09713
O -71.5662 -37.6772 2.73407
O -72.529 -35.6248 1.37027
O -70.1496 -44.2437 0.00680674
Si -71.6622 -44.8931 0.00709697
Si -68.8962 -43.1819 0.00717605
O -72.0339 -41.1265 0.00754975
Si -73.3121 -42.1637 0.00731103
Si -70.5109 -40.5108 0.00730162
O -74.1401 -41.7406 1.37081
O -72.848 -43.7465 0.00711604
O -74.1401 -41.7404 4.09769
O -70.4082 -39.6263 1.37073
O -69.3313 -41.6213 0.00723723
O -70.4083 -39.6263 4.09768
O -55.1112 -61.8806 2.73443
Si -56.3848 -62.9233 2.7344
Si -54.2009 -60.5131 2.73439
O -57.7849 -59.4071 2.73452
Si -58.7258 -60.7577 2.73442
Si -56.4922 -58.3936 2.73448
O -59.6386 -60.5807 4.09783
O -57.8417 -62.15 2.73438
O -59.6386 -60.5807 1.37101
O -56.6387 -57.5152 4.09789
O -55.0511 -59.134 2.73434
O -56.6387 -57.5152 1.37104
O -51.5447 -64.864 0.00753124
Si -52.7579 -65.9766 0.00757068
Si -50.7121 -63.4479 0.00761073
O -54.3523 -62.5441 0.00749849
Si -55.2162 -63.9452 0.00751546
Si -53.1183 -61.4597 0.00750354
O -56.1375 -63.8195 1.37093
O -54.2557 -65.286 0.00755167
O -56.1375 -63.8195 4.09788
O -53.3137 -60.591 1.371
O -51.6381 -62.1185 0.00755709
O -53.3138 -60.5909 4.09784
O -31.5345 -76.5614 2.7339
Si -32.3942 -77.9651 2.73388
Si -31.1247 -74.9706 2.73397
O -34.8731 -75.1053 2.73422
Si -35.3172 -76.6903 2.73407
Si -33.9859 -73.7228 2.73403
O -36.2373 -76.8235 4.09752
O -34.0243 -77.7142 2.73395
O -36.2373 -76.8235 1.37064
O -34.4133 -72.9417 4.09758
O -32.3814 -73.948 2.73392
O -34.4135 -72.9416 1.3706
O -9.07747 -82.2985 0.00570777
Si -27.9654 -79.656 0.00664901
Si -26.8648 -76.5954 0.00655054
O -30.5998 -76.9385 0.00716333
Si -30.9547 -78.5457 0.00698059
Si -29.7909 -75.5088 0.00707464
O -31.8658 -78.7301 1.37047
O -29.6069 -79.4961 0.00685194
O -31.8659 -78.7301 4.0973
O -30.2612 -74.7525 1.37055
O -28.1764 -75.6443 0.00670498
O -30.2613 -74.7525 4.09743
O -4.44331 -82.6824 2.73253
Si -4.79408 -84.2906 2.73256
Si -4.57916 -81.0453 2.73253
O -8.07523 -82.4037 2.73274
Si -7.97371 -84.0466 2.7327
Si -7.69132 -80.8065 2.73275
O -8.79902 -84.4747 4.09613
O -6.41615 -84.589 2.73265
O -8.79899 -84.4747 1.36926
O -8.35174 -80.2089 4.09612
O -6.10198 -80.4922 2.73275
O -8.35155 -80.209 1.36927
O 18.6492 -80.7055 0.00654106
Si -0.0552064 -84.432 0.00574423
Si -0.0222172 -81.1797 0.0057579
O -3.43654 -82.7314 0.00562689
Si -3.24357 -84.366 0.00566985
Si -3.1428 -81.1151 0.00564748
O -4.04374 -84.8395 1.36908
O -1.65812 -84.8206 0.00576848
O -4.04362 -84.8395 4.09597
O -3.83559 -80.5555 1.36901
O -1.57352 -80.7126 0.00591381
O -3.83536 -80.5555 4.09593
O 23.15 -79.538 2.7339
Si 23.35 -81.1718 2.73363
Si 22.4812 -78.0375 2.73358
O 19.6299 -80.4741 2.73323
Si 20.2681 -81.9914 2.73333
Si 19.4649 -78.8397 2.73337
O 19.6302 -82.6678 4.09677
O 21.9175 -81.9891 2.73342
O 19.6302 -82.6679 1.3699
O 18.6444 -78.4935 4.09672
O 20.8613 -78.0182 2.73353
O 18.6447 -78.4934 1.36988
O 44.2866 -70.0332 0.00736374
Si 27.8696 -79.7392 0.00697835
Si 43.2281 -68.777 0.00732033
O 24.1163 -79.2517 0.00656008
Si 24.8386 -80.7309 0.00674022
Si 23.8597 -77.6292 0.00668302
O 24.2397 -81.442 1.3702
O 26.4852 -80.6358 0.00683184
O 24.2397 -81.4421 4.09705
O 23.0213 -77.3296 1.37013
O 25.2076 -76.7304 0.00691906
O 23.0212 -77.3296 4.09705
O 48.1478 -67.4426 2.73443
Si 48.8768 -68.9184 2.73426
Si 47.0205 -66.2477 2.73433
O 45.1355 -69.4901 2.73414
Si 46.2394 -70.7111 2.73421
Si 44.4393 -68.0022 2.7342
O 45.8614 -71.5605 4.09762
O 47.7951 -70.1635 2.73421
O 45.8614 -71.5605 1.3708
O 43.5507 -67.947 4.09773
O 45.4853 -66.7651 2.73406
O 43.5505 -67.947 1.37076
O 64.9631 -51.4946 0.00747318
Si 52.6686 -66.0731 0.00732116
Si 63.5491 -50.6584 0.00717525
O 48.965 -66.8531 0.00729865
Si 50.1356 -68.0103 0.00735831
Si 48.1866 -65.4066 0.00743335
O 49.8058 -68.8795 1.37086
O 51.6583 -67.3766 0.00731674
O 49.8057 -68.8795 4.0977
O 47.2963 -65.401 1.37094
O 49.1619 -64.113 0.00717979
O 47.2961 -65.4011 4.09784
O 67.7523 -47.7747 2.73462
Si 68.9278 -48.9269 2.73392
Si 66.2937 -47.019 2.73402
O 65.5851 -50.7021 2.73402
Si 67.0303 -51.49 2.73406
Si 64.4367 -49.5275 2.73405
O 66.9538 -52.4164 4.09759
O 68.318 -50.4593 2.73398
O 66.9538 -52.4166 1.37067
O 63.5797 -49.7684 4.09759
O 65.0155 -48.0144 2.73389
O 63.5795 -49.7687 1.37071
O 78.3491 -27.1641 0.00724258
Si 71.5663 -44.988 0.00720672
Si 76.7383 -26.8418 0.00727239
O 68.3289 -46.9481 0.00612561
Si 69.816 -47.6537 0.0069591
Si 67.1163 -45.84 0.0070657
O 69.7915 -48.5831 1.37039
O 71.0437 -46.5523 0.007057
O 69.7918 -48.5832 4.09733
O 66.2742 -46.129 1.37053
O 67.6091 -44.2968 0.00704482
O 66.274 -46.1288 4.09745
O 79.7535 -22.7317 2.73419
Si 81.2435 -23.4312 2.73422
Si 78.1272 -22.5 2.73424
O 78.6745 -26.2105 2.73447
Si 80.2988 -26.4769 2.7342
Si 77.2026 -25.481 2.73418
O 80.5326 -27.3767 4.09768
O 81.174 -25.079 2.73418
O 80.5326 -27.3767 1.37075
O 76.4733 -25.9916 4.09768
O 77.2494 -23.8616 2.73421
O 76.4732 -25.9919 1.37081
O 82.9613 0.220531 0.00684134
Si 82.4346 -18.8426 0.00726882
Si 81.3344 -0.00683609 0.00706919
O 80.025 -21.7613 0.007449
Si 81.6617 -21.9364 0.00733349
Si 78.5146 -21.1153 0.00735079
O 81.9456 -22.8216 1.37083
O 82.4572 -20.4917 0.00721956
O 81.9455 -22.8218 4.0977
O 77.8149 -21.6662 1.37074
O 78.4708 -19.4959 0.00721692
O 77.815 -21.6661 4.09766
O 82.8243 4.8683 2.73409
Si 84.4617 4.70002 2.73401
Si 81.2127 4.54981 2.73404
O 82.9539 1.22809 2.73407
Si 84.5751 1.51294 2.73398
Si 81.3237 1.43073 2.73398
O 85.0927 0.740541 4.09742
O 84.9397 3.12147 2.73401
O 85.0927 0.740609 1.37049
O 80.8036 0.707875 4.09733
O 80.8335 2.9748 2.73421
O 80.8037 0.708145 1.37045
O 82.4259 9.50097 0.00747196
Si 84.0702 9.42513 0.0071735
Si 80.8349 9.0922 0.0072275
O 82.7602 5.87383 0.0071154
Si 84.3629 6.24942 0.00712079
Si 81.1212 5.98443 0.0071508
O 84.9231 5.5073 1.37057
O 84.6364 7.87597 0.00714773
O 84.9231 5.50728 4.09746
O 80.6426 5.23356 1.37052
O 80.5448 7.49839 0.00735632
O 80.6426 5.23373 4.09747
O 81.7666 14.1038 2.73443
Si 83.4126 14.1209 2.73417
Si 80.2012 13.6058 2.73413
O 82.3052 10.5012 2.73365
Si 83.8841 10.9666 2.73404
Si 80.6626 10.5192 2.73409
O 84.4852 10.2572 4.09748
O 84.0653 12.6061 2.73412
O 84.4853 10.2572 1.37061
O 80.2272 9.74261 4.09746
O 80.0017 11.9982 2.73437
O 80.227 9.74292 1.37055
O 80.8481 18.6619 0.00780398
Si 82.4905 18.7719 0.00771641
Si 79.3133 18.0764 0.00768906
O 81.5896 15.0957 0.00676942
Si 83.1397 15.6495 0.0072685
Si 79.9486 15.0208 0.0072188
O 83.7799 14.9751 1.3707
O 83.2279 17.2965 0.00749081
O 83.78 14.9752 4.09756
O 79.5578 14.2206 1.37049
O 79.205 16.4601 0.00773036
O 79.5576 14.2211 4.09748
O 79.6735 23.161 2.73505
Si 81.307 23.3634 2.73478
Si 78.1742 22.4898 2.73481
O 80.6153 19.642 2.73461
Si 82.1316 20.2826 2.73462
Si 78.9811 19.4749 2.73458
O 82.809 19.6456 4.09809
O 82.1266 21.932 2.73465
O 82.809 19.6454 1.37122
O 78.636 18.6541 4.098
O 78.1575 20.8699 2.73483
O 78.6359 18.6543 1.37109
O 78.2464 27.5864 0.00832169
Si 79.8659 27.8807 0.00810869
Si 76.7874 26.8316 0.008137
O 79.3856 24.1264 0.00768214
Si 80.8634 24.8514 0.00789435
Si 77.7634 23.8672 0.00790448
O 81.5756 24.2536 1.37133
O 80.7651 26.4979 0.008024
O 81.5757 24.2537 4.09821
O 77.4653 23.0283 1.37132
O 76.8622 25.2134 0.00813131
O 77.4652 23.0285 4.09818
O 76.5718 31.9242 2.73573
Si 78.1721 32.3093 2.73536
Si 75.1576 31.0884 2.73534
O 77.9042 28.5341 2.7348
Si 79.3388 29.3412 2.735
Si 76.2993 28.1837 2.73502
O 80.0838 28.7846 4.09841
O 79.1479 30.9795 2.73517
O 80.0838 28.7847 1.37156
O 76.0492 27.3293 4.09848
O 75.3235 29.4769 2.73525
O 76.0491 27.3294 1.3715
O 74.656 36.161 0.00899252
Si 76.2322 36.6355 0.00881381
Si 73.291 35.247 0.00882382
O 76.1769 32.8511 0.00809935
Si 77.5638 33.7377 0.00846618
Si 74.5942 32.411 0.00843398
O 78.3388 33.224 1.37193
O 77.2811 35.3626 0.00859212
O 78.339 33.224 4.0988
O 74.3926 31.5438 1.37188
O 73.5474 33.6474 0.00863585
O 74.3924 31.5438 4.09874
O 72.5056 40.2835 2.73601
Si 74.0526 40.8459 2.73591
Si 71.194 39.2945 2.73589
O 74.2097 37.0644 2.73562
Si 75.5446 38.0274 2.73571
Si 72.6542 36.536 2.73571
O 76.3472 37.5582 4.0992
O 75.1713 39.634 2.73579
O 76.3473 37.5581 1.3723
O 72.5016 35.6589 4.09919
O 71.5396 37.7117 2.73581
O 72.5015 35.6588 1.37226
O 70.1274 44.2793 0.00922465
Si 71.6404 44.9275 0.00917179
Si 68.8734 43.2181 0.00924491
O 72.0093 41.1607 0.00902306
Si 73.2881 42.1971 0.00902956
Si 70.486 40.5458 0.00900678
O 74.1158 41.7735 1.37248
O 72.8252 43.7802 0.00909588
O 74.1158 41.7735 4.09936
O 70.3827 39.6615 1.37248
O 69.3072 41.6572 0.00903858
O 70.3828 39.6614 4.09936
O 67.5289 48.1354 2.73635
Si 69.0032 48.8675 2.73623
Si 66.3364 47.0055 2.73627
O 69.5828 45.1271 2.7361
Si 70.8014 46.2337 2.73607
Si 68.0964 44.4278 2.73614
O 71.6516 45.8572 4.09951
O 70.2505 47.7883 2.73613
O 71.6516 45.8573 1.37261
O 68.0429 43.539 4.0996
O 66.8573 45.4714 2.73604
O 68.0429 43.539 1.3727
O 64.718 51.8394 0.00920799
Si 66.1488 52.6531 0.00937986
Si 63.5909 50.6444 0.0093601
O 66.9376 48.9513 0.00928522
Si 68.0921 50.1245 0.00933801
Si 65.4927 48.1696 0.00938008
O 68.962 49.7963 1.37279
O 67.4548 51.6457 0.00934435
O 68.9621 49.7963 4.09968
O 65.4891 47.2794 1.37292
O 64.1969 49.142 0.00927577
O 65.4893 47.2791 4.09983
O -67.5476 -48.098 2.73418
Si -69.0213 -48.8312 2.73402
Si -66.356 -46.9673 2.73399
O -69.604 -45.0914 2.73434
Si -70.8219 -46.1988 2.73402
Si -68.1181 -44.3911 2.73409
O -71.6725 -45.8229 4.09745
O -70.2695 -47.753 2.73407
O -71.6723 -45.8229 1.37053
O -68.0653 -43.5021 4.09749
O -66.878 -45.4336 2.73419
O -68.0653 -43.5023 1.37057
O -64.7334 -51.7999 0.00748673
Si -66.1636 -52.6148 0.0073868
Si -63.6071 -50.6041 0.00742037
O -66.9554 -48.9136 0.00688965
Si -68.1091 -50.0877 0.00712401
Si -65.5111 -48.1309 0.00707951
O -68.9793 -49.7601 1.37055
O -67.4704 -51.6084 0.00726395
O -68.9793 -49.7602 4.09743
O -65.5085 -47.2404 1.37053
O -64.2145 -49.1021 0.00727511
O -65.5085 -47.2404 4.0974
O -61.7162 -55.3384 2.73458
Si -63.0985 -56.2322 2.7344
Si -60.6588 -54.0813 2.73435
O -64.0963 -52.5812 2.7342
Si -65.1824 -53.8181 2.73428
Si -62.6983 -51.7186 2.7343
O -66.0696 -53.5398 4.09772
O -64.4596 -55.3006 2.7343
O -66.0697 -53.5398 1.37084
O -62.7456 -50.8293 4.09773
O -61.3492 -52.6157 2.73426
O -62.7455 -50.8295 1.37078
O -58.5054 -58.7023 0.00744795
Si -59.8355 -59.672 0.00752539
Si -57.5201 -57.3878 0.00758141
O -61.0364 -56.0827 0.00746056
Si -62.0515 -57.3786 0.0075087
Si -59.689 -55.1431 0.00745253
O -62.9528 -57.1506 1.37102
O -61.2467 -58.8183 0.00750075
O -62.9529 -57.1506 4.09786
O -59.7859 -54.2581 1.37096
O -58.2918 -55.9633 0.0074617
O -59.7861 -54.2578 4.09788
O 55.1027 61.9246 2.73572
Si 56.3767 62.967 2.7364
Si 54.1918 60.5576 2.73631
O 57.7752 59.45 2.73651
Si 58.7166 60.8002 2.73639
Si 56.4819 58.4371 2.73651
O 59.6292 60.6228 4.09983
O 57.8331 62.193 2.73645
O 59.6292 60.6227 1.37294
O 56.6276 57.5588 4.1
O 55.0413 59.1781 2.73635
O 56.6279 57.5586 1.37315
O 51.5369 64.9091 0.0096074
Si 52.7504 66.0212 0.00957886
Si 50.7043 63.493 0.00974275
O 54.3443 62.5884 0.010136
Si 55.2084 63.9894 0.00955375
Si 53.1099 61.5044 0.00948007
O 56.1297 63.8634 1.37296
O 54.2481 65.3303 0.00960249
O 56.1295 63.8633 4.09984
O 53.3048 60.6356 1.3729
O 51.63 62.1635 0.00943565
O 53.3049 60.6358 4.09975
O 47.8093 67.6888 2.73635
Si 48.9587 68.867 2.73649
Si 47.0574 66.2282 2.73642
O 50.7424 65.5292 2.73681
Si 51.5266 66.9763 2.73648
Si 49.5708 64.3777 2.73664
O 52.4535 66.9023 4.09992
O 50.4927 68.2613 2.73651
O 52.4534 66.9022 1.37304
O 49.8142 63.5213 4.10018
O 48.0562 64.9527 2.73633
O 49.8146 63.5211 1.37333
O 43.9319 70.2549 0.00941058
Si 45.0135 71.4958 0.00953699
Si 43.2629 68.7546 0.00949812
O 46.9814 68.2631 0.00962588
Si 47.6834 69.7519 0.00960427
Si 45.8761 67.0479 0.00953981
O 48.6129 69.73 1.37299
O 46.579 70.9769 0.0095809
O 48.6128 69.73 4.09994
O 46.1672 66.2064 1.37301
O 44.3316 67.537 0.00950305
O 46.1672 66.2064 4.09984
O -47.8166 -67.6439 2.73464
Si -48.9659 -68.8223 2.73451
Si -47.0647 -66.1834 2.73451
O -50.7496 -65.4844 2.73453
Si -51.5339 -66.9316 2.73446
Si -49.5782 -64.3327 2.7345
O -52.4607 -66.8575 4.0979
O -50.4999 -68.2165 2.73446
O -52.4607 -66.8575 1.37104
O -49.822 -63.4762 4.09792
O -48.0636 -64.9078 2.73441
O -49.822 -63.4762 1.37105
O -43.9393 -70.2111 0.00749512
Si -45.021 -71.4518 0.00757988
Si -43.2701 -68.7108 0.00758623
O -46.9886 -68.2185 0.0075836
Si -47.6906 -69.7074 0.00762186
Si -45.8832 -67.0035 0.0076202
O -48.62 -69.6853 1.37107
O -46.5864 -70.9325 0.00759797
O -48.6201 -69.6853 4.09798
O -46.1743 -66.162 1.37111
O -44.3388 -67.493 0.00753405
O -46.1745 -66.1618 4.098
O -39.9247 -72.5578 2.73419
Si -40.9355 -73.8569 2.7343
Si -39.3404 -71.0225 2.73436
O -43.0804 -70.7386 2.73465
Si -43.6983 -72.2643 2.73447
Si -42.0446 -69.4636 2.73448
O -44.6275 -72.2941 4.09793
O -42.5275 -73.4259 2.73436
O -44.6275 -72.2941 1.37104
O -42.3823 -68.6397 4.09799
O -40.4753 -69.8662 2.73421
O -42.3825 -68.6396 1.3711
O -35.7856 -74.6767 0.00709487
Si -36.7222 -76.0303 0.007182
Si -35.2877 -73.1113 0.00714033
O -39.0378 -73.0366 0.00752731
Si -39.5696 -74.5944 0.00740298
Si -38.0748 -71.7057 0.00747538
O -40.4957 -74.676 1.37083
O -38.3357 -75.6888 0.00723664
O -40.4958 -74.676 4.09778
O -38.458 -70.9019 1.37093
O -36.4854 -72.0202 0.00725414
O -38.4581 -70.9019 4.0978
O 31.5268 76.6031 2.73652
Si 32.3863 78.0069 2.73652
Si 31.1173 75.0123 2.73653
O 34.8656 75.1475 2.73651
Si 35.3094 76.7326 2.73646
Si 33.9785 73.7649 2.73648
O 36.2295 76.866 4.09987
O 34.0164 77.7564 2.73649
O 36.2296 76.866 1.37306
O 34.4061 72.9837 4.09996
O 32.3741 73.9898 2.73653
O 34.4062 72.9837 1.37303
O 27.1772 78.2473 0.00965899
Si 27.9571 79.6968 0.00961857
Si 26.8573 76.636 0.00963584
O 30.5923 76.9799 0.00955007
Si 30.9468 78.5873 0.00962781
Si 29.7836 75.55 0.00963718
O 31.8579 78.7718 1.37309
O 29.5987 79.5374 0.00960039
O 31.8579 78.7718 4.09994
O 30.2541 74.7939 1.37307
O 28.1691 75.6853 0.00967548
O 30.254 74.7939 4.09995
O 22.7431 79.6462 2.73669
Si 23.4408 81.1371 2.73662
Si 22.5133 78.0196 2.73662
O 26.2233 78.5714 2.73649
Si 26.4876 80.196 2.73651
Si 25.4956 77.0986 2.73652
O 27.3869 80.4311 4.09999
O 25.0886 81.0695 2.73658
O 27.387 80.4311 1.37307
O 26.0076 76.3699 4.09993
O 23.8761 77.1435 2.73663
O 26.0075 76.3699 1.37305
O 18.2373 80.7958 0.00970834
Si 18.851 82.3232 0.00979494
Si 18.0987 79.1589 0.00979103
O 21.772 79.9167 0.00969842
Si 21.9455 81.5536 0.00973027
Si 21.1278 78.4055 0.00972959
O 22.8305 81.8383 1.37316
O 20.5 82.3476 0.00972526
O 22.8306 81.8384 4.10009
O 21.6796 77.7065 1.37315
O 19.5083 78.3602 0.00978346
O 21.6796 77.7065 4.10007
O -27.1852 -78.2066 0.00626965
O -22.7511 -79.607 2.73327
Si -23.4493 -81.0977 2.73334
Si -22.5208 -77.9805 2.73339
O -26.2307 -78.5311 2.73376
Si -26.4958 -80.1556 2.73357
Si -25.5029 -77.0584 2.73346
O -27.3955 -80.3904 4.09691
O -25.0971 -81.0295 2.73349
O -27.3953 -80.3903 1.37012
O -26.0148 -76.3295 4.09685
O -23.8834 -77.1039 2.73343
O -26.0148 -76.3296 1.37004
O -18.2457 -80.7583 0.0058614
Si -18.8597 -82.2855 0.00610243
Si -18.1064 -79.1215 0.00609065
O -21.78 -79.8778 0.00662423
Si -21.954 -81.5146 0.00643607
Si -21.1352 -78.3669 0.00650231
O -22.8391 -81.7992 1.3699
O -20.5088 -82.3093 0.0062932
O -22.8392 -81.7991 4.0968
O -21.6868 -77.6677 1.37003
O -19.5157 -78.3222 0.00626711
O -21.687 -77.6677 4.09685
O -13.6829 -81.6567 2.73273
Si -14.2109 -83.2157 2.7328
Si -13.6354 -80.0146 2.73278
O -17.2612 -80.9747 2.73317
Si -17.3435 -82.6187 2.73299
Si -16.7016 -79.4302 2.73299
O -18.2115 -82.952 4.09641
O -15.8561 -83.3314 2.73289
O -18.2113 -82.952 1.3695
O -17.2914 -78.7628 4.09634
O -15.0871 -79.2952 2.73299
O -17.2911 -78.7629 1.36947
Si -9.51748 -83.8846 0.00581398
Si -9.12163 -80.6563 0.00586069
O -12.688 -81.8176 0.00595459
Si -12.6785 -83.4636 0.00590383
Si -12.2157 -80.2443 0.00588634
O -13.5264 -83.8449 1.36937
O -11.1537 -84.0921 0.00583937
O -13.5264 -83.8449 4.09624
O -12.8417 -79.6109 1.36929
O -10.6112 -80.0192 0.00591756
O -12.8418 -79.6109 4.09627
O 9.06936 82.3328 0.00979616
O 4.43483 82.716 2.73678
Si 4.78541 84.3242 2.73664
Si 4.57111 81.0789 2.73666
O 8.06683 82.4378 2.7367
Si 7.96498 84.0807 2.73672
Si 7.68333 80.8405 2.73668
O 8.79017 84.509 4.10017
O 6.40739 84.6229 2.73668
O 8.79005 84.509 1.37321
O 8.34384 80.2431 4.10009
O 6.094 80.526 2.73661
O 8.34379 80.2431 1.37323
O -0.213301 82.8395 0.00981555
Si 0.0465809 84.4649 0.00985442
Si 0.0141144 81.2125 0.00985555
O 3.42851 82.7649 0.00963602
Si 3.23494 84.3995 0.00974181
Si 3.13474 81.1486 0.00976466
O 4.03496 84.8731 1.37322
O 1.64942 84.8537 0.00984622
O 4.03503 84.8731 4.10007
O 3.82748 80.589 1.3732
O 1.56553 80.7457 0.00974584
O 3.82751 80.589 4.10013
O -4.86131 82.7025 2.73702
Si -4.69278 84.3399 2.73682
Si -4.54303 81.0909 2.73688
O -1.22105 82.832 2.73674
Si -1.50575 84.4533 2.73674
Si -1.42377 81.2019 2.73675
O -0.733357 84.9709 4.10015
O -3.11425 84.818 2.73674
O -0.733416 84.9709 1.37331
O -0.700961 80.6819 4.10019
O -2.96793 80.7117 2.73668
O -0.700772 80.6819 1.37339
Si -9.41782 83.9492 0.00992925
Si -9.08629 80.7137 0.00993276
O -5.86715 82.6385 0.00978826
Si -6.24217 84.2412 0.00992205
Si -5.97819 80.9995 0.00997914
O -5.50012 84.8013 1.37342
O -7.86861 84.5151 0.00987779
O -5.50002 84.8013 4.10026
O -5.22727 80.521 1.37345
O -7.49241 80.4235 0.00981638
O -5.22712 80.5209 4.10037
O 0.204992 -82.8067 0.00575491
O 4.8529 -82.6706 2.73304
Si 4.68431 -84.308 2.73279
Si 4.5352 -81.0589 2.73284
O 1.21291 -82.7994 2.73257
Si 1.49728 -84.4207 2.73263
Si 1.41589 -81.1692 2.73264
O 0.724765 -84.9381 4.09607
O 3.1057 -84.7858 2.73271
O 0.72484 -84.9381 1.36915
O 0.692846 -80.6492 4.09601
O 2.96019 -80.6793 2.73277
O 0.693014 -80.6491 1.36918
O 9.48623 -82.2742 0.00737536
Si 9.40938 -83.9184 0.00604225
Si 9.07841 -80.6829 0.00607857
O 5.85889 -82.6068 0.00569252
Si 6.23364 -84.2096 0.00589426
Si 5.97028 -80.9678 0.00593494
O 5.49144 -84.7695 1.36935
O 7.86 -84.4839 0.00589681
O 5.49137 -84.7696 4.09627
O 5.21949 -80.4892 1.3694
O 7.48461 -80.3921 0.00595445
O 5.21951 -80.4891 4.09625
O 14.0897 -81.6185 2.73331
Si 14.1052 -83.2645 2.73304
Si 13.5933 -80.0526 2.73298
O 10.4868 -82.1541 2.7315
Si 10.9508 -83.7334 2.73283
Si 10.5061 -80.5114 2.73286
O 10.2411 -84.3338 4.09635
O 12.59 -83.916 2.73299
O 10.2412 -84.3343 1.36939
O 9.72957 -80.0758 4.09632
O 11.9858 -79.8517 2.73315
O 9.72964 -80.0753 1.36945
Si 18.7571 -82.348 0.00643028
Si 18.0656 -79.1699 0.00648671
O 15.082 -81.4425 0.00584398
Si 15.6339 -82.9932 0.00614491
Si 15.009 -79.8014 0.00607219
O 14.959 -83.6327 1.36958
O 17.2808 -83.0835 0.00631236
O 14.959 -83.6328 4.09647
O 14.2093 -79.4098 1.36947
O 16.4493 -79.0597 0.00639333
O 14.2095 -79.4097 4.09637
O -18.6574 80.7351 0.00994284
Si -18.0737 79.1996 0.00989581
O -23.1584 79.5677 2.73695
Si -23.3582 81.2016 2.7368
Si -22.4896 78.0673 2.73678
O -19.638 80.5036 2.73674
Si -20.2761 82.0209 2.73675
Si -19.4732 78.8692 2.73678
O -19.6382 82.6974 4.10018
O -21.9255 82.0187 2.73679
O -19.6382 82.6974 1.37332
O -18.6527 78.5231 4.1002
O -20.8697 78.0479 2.7368
O -18.6527 78.5231 1.37336
O -27.5866 78.1496 0.00985108
Si -27.878 79.7696 0.00986288
Si -26.8349 76.6889 0.0098356
O -24.1248 79.2815 0.00978898
Si -24.8468 80.7607 0.00990146
Si -23.8683 77.6589 0.00988129
O -24.2478 81.4718 1.37334
O -26.4935 80.6659 0.00983755
O -24.2478 81.4719 4.10027
O -23.0298 77.3594 1.37337
O -25.2164 76.7604 0.00984965
O -23.0297 77.3594 4.10019
O -31.9285 76.4849 2.73665
Si -32.3104 78.086 2.73669
Si -31.0959 75.0688 2.73667
O -28.5355 77.8095 2.73672
Si -29.3396 79.2458 2.73675
Si -28.1885 76.2039 2.73672
O -28.7815 79.9894 4.10023
O -30.9783 79.0586 2.73671
O -28.7815 79.9895 1.37332
O -27.3344 75.9519 4.10014
O -29.484 75.2311 2.73675
O -27.3345 75.9519 1.37327
Si -36.6414 76.1563 0.00983641
O -32.8568 76.0921 0.00982922
Si -33.7403 77.481 0.00980331
Si -32.4202 74.5085 0.00978495
O -33.2248 78.2548 1.37328
O -35.3659 77.2021 0.00980025
O -33.2248 78.2548 4.10013
O -31.5533 74.3049 1.3732
O -33.6592 73.4647 0.00984412
O -31.5534 74.3048 4.10012
O 27.5782 -78.1191 0.00706943
Si 26.8261 -76.6587 0.00710611
O 31.9194 -76.4537 2.73429
Si 32.3015 -78.0548 2.73411
Si 31.0864 -75.0378 2.73401
O 28.5266 -77.7791 2.73399
Si 29.331 -79.2152 2.73388
Si 28.1793 -76.1735 2.734
O 28.7732 -79.9589 4.09738
O 30.9696 -79.0278 2.73391
O 28.773 -79.959 1.37046
O 27.3253 -75.9215 4.09744
O 29.4746 -75.2004 2.73394
O 27.3253 -75.9215 1.37057
O 36.1601 -74.5467 0.00843532
Si 36.6315 -76.1238 0.0073078
Si 35.2488 -73.1799 0.00739113
O 32.8472 -76.0608 0.00703754
Si 33.731 -77.4494 0.0072179
Si 32.4102 -74.4773 0.00710769
O 33.2158 -78.2234 1.37066
O 35.3565 -77.1701 0.00712999
O 33.2158 -78.2235 4.09761
O 31.5435 -74.2737 1.37058
O 33.6487 -73.4329 0.00716595
O 31.5434 -74.2737 4.09747
O 40.2867 -72.4041 2.73434
Si 40.846 -73.9522 2.73418
Si 39.3002 -71.0906 2.73403
O 37.0644 -74.1021 2.73318
Si 38.0248 -75.4389 2.73413
Si 36.539 -72.5457 2.73419
O 37.5539 -76.2405 4.09764
O 39.632 -75.0686 2.73419
O 37.5539 -76.2409 1.37075
O 35.6622 -72.3914 4.09767
O 37.7168 -71.4333 2.73409
O 35.662 -72.3912 1.37085
Si 44.9318 -71.5476 0.00732867
O 41.1647 -71.9093 0.00684955
Si 42.1985 -73.1902 0.00726766
Si 40.5529 -70.3847 0.00712173
O 41.7735 -74.0171 1.37071
O 43.7824 -72.7303 0.00729277
O 41.7735 -74.0172 4.09765
O 39.6687 -70.28 1.37058
O 41.6664 -69.208 0.00725266
O 39.6687 -70.2799 4.09743
O -44.2997 70.0692 0.0108084
Si -43.2414 68.8127 0.00993153
O -48.1618 67.4789 2.73671
Si -48.8907 68.9548 2.7367
Si -47.0347 66.2839 2.73658
O -45.1492 69.5261 2.73587
Si -46.253 70.7472 2.73668
Si -44.4531 68.0382 2.73674
O -45.8744 71.5964 4.10017
O -47.8088 70.1997 2.73669
O -45.8746 71.5966 1.37325
O -43.5644 67.9829 4.10023
O -45.4994 66.8013 2.7367