2880
 Atoms. Timestep: 9477
O 29.0578 4.90573 2.96814
Si 30.7019 4.82863 2.95941
Si 27.4981 4.40433 2.95374
O 29.4383 1.17909 2.96812
Si 31.0328 1.58728 2.95932
Si 27.8095 1.35451 2.95362
O 31.5574 0.793428 4.33092
O 31.2618 3.24823 2.9586
O 31.5574 0.793022 1.58826
O 27.3018 0.876735 4.41017
O 27.3 2.84331 2.65833
O 27.3103 0.511344 1.66759
O 27.9427 9.38323 0.2257
Si 29.5786 9.56432 0.216883
Si 26.4808 8.6438 0.211219
O 28.9018 5.76188 0.225621
Si 30.4127 6.41465 0.216797
Si 27.2655 5.68038 0.211096
O 31.055 5.7126 1.58838
O 30.3789 8.09098 0.216072
O 31.0551 5.71218 31.7573
O 26.8388 5.12926 1.66772
O 26.5295 7.0711 -0.0844718
O 26.9044 4.76938 31.8367
O 26.1402 13.6308 2.96834
Si 27.7276 14.0659 2.95964
Si 24.8122 12.6714 2.954
O 27.6546 10.2042 2.96831
Si 29.0447 11.0856 2.95952
Si 26.0513 9.86751 2.95385
O 29.789 10.4927 4.33113
O 28.7487 12.7359 2.95882
O 29.7891 10.4923 1.58844
O 25.7161 9.25661 4.41051
O 25.1068 11.1259 2.65801
O 25.8373 8.91123 1.66791
O 23.6942 17.5433 0.225856
Si 25.1938 18.2217 0.217198
Si 22.5331 16.3876 0.211507
O 25.7272 14.3964 0.225937
Si 26.9619 15.4848 0.217029
Si 24.1965 13.8127 0.21136
O 27.79 15.0158 1.58859
O 26.4108 17.0683 0.216347
O 27.7901 15.0154 31.7575
O 23.961 13.1569 1.66804
O 23.0664 14.9074 -0.0846813
O 24.1349 12.8346 31.837
O 20.665 21.0237 2.96883
Si 22.0396 21.9289 2.95995
Si 19.6995 19.7002 2.95424
O 23.1664 18.2345 2.96887
Si 24.2152 19.503 2.95986
Si 21.7461 17.418 2.95416
O 25.1064 19.1697 4.3315
O 23.4224 20.9806 2.9591
O 25.1067 19.1693 1.58876
O 21.6162 16.7336 4.41092
O 20.4584 18.322 2.65802
O 21.8388 16.4424 1.66831
O 17.127 23.9855 0.226319
Si 18.3426 25.0951 0.217359
Si 16.3811 22.5269 0.211678
O 20.0352 21.6235 0.226065
Si 20.8719 23.0408 0.21732
Si 18.7606 20.5943 0.211597
O 21.8045 22.8514 1.5889
O 19.8572 24.3756 0.216552
O 21.8048 22.8511 31.7578
O 18.7396 19.8982 1.66842
O 17.3469 21.2849 -0.0846205
O 19.0052 19.6453 31.8374
O 13.1681 26.3552 2.96886
Si 14.1946 27.6418 2.95995
Si 12.6601 24.7977 2.95432
O 16.4108 24.4789 2.96867
Si 17.0149 26.0099 2.95997
Si 15.3134 23.2625 2.9543
O 17.9657 25.9692 4.33157
O 15.8032 27.1689 2.95919
O 17.966 25.969 1.58894
O 15.4021 22.5717 4.41112
O 13.809 23.7228 2.65803
O 15.704 22.3636 1.66845
O 8.88635 28.0745 0.22625
Si 9.69841 29.5061 0.217305
Si 8.62887 26.4566 0.211606
O 12.3832 26.7302 0.226033
Si 12.7398 28.337 0.217326
Si 11.4902 25.3567 0.211684
O 13.6852 28.446 1.58889
O 11.3613 29.2915 0.216536
O 13.6855 28.4459 31.7578
O 11.6863 24.6883 1.66847
O 9.93211 25.5751 -0.0844449
O 12.0169 24.5303 31.8373
O 4.38803 29.1013 2.96879
Si 4.96575 30.6425 2.95986
Si 4.38709 27.4631 2.95414
O 8.05227 28.3217 2.96856
Si 8.15269 29.9645 2.95992
Si 7.38555 26.8252 2.95422
O 9.06923 30.2204 4.33149
O 6.6417 30.6913 2.95911
O 9.06965 30.2204 1.58892
O 7.68418 26.1958 4.41099
O 5.81236 26.7965 2.65849
O 8.03529 26.0916 1.66831
O -0.215611 29.4113 0.225922
Si 0.113714 31.0239 0.217092
Si 0.0396445 27.793 0.211378
O 3.52525 29.2148 0.225797
Si 3.36743 30.8531 0.217207
Si 3.10112 27.6323 0.211506
O 4.2325 31.2494 1.5888
O 1.76137 31.3344 0.216381
O 4.23294 31.2494 31.7577
O 3.49499 27.0575 1.6682
O 1.55176 27.3575 -0.0838189
O 3.8577 27.0096 31.837
O -4.81116 28.9978 2.96839
Si -4.73798 30.6421 2.95958
Si -4.30633 27.4393 2.95388
O -1.08592 29.3884 2.96826
Si -1.49776 30.9819 2.95968
Si -1.25727 27.759 2.95398
O -0.705345 31.5087 4.33122
O -3.15923 31.2064 2.95888
O -0.704949 31.5087 1.58871
O -0.77787 27.2529 4.41055
O -2.74466 27.2451 2.6591
O -0.412724 27.2623 1.66788
O -9.28608 27.8723 0.225568
Si -9.47052 29.5078 0.216836
Si -8.54425 26.4116 0.211151
O -5.66753 28.8393 0.225511
Si -6.32305 30.349 0.216927
Si -5.5823 27.2032 0.211246
O -5.62268 30.9931 1.58851
O -7.99919 30.3115 0.216131
O -5.62231 30.9932 31.7574
O -5.02938 26.7781 1.66773
O -6.9713 26.4633 -0.083261
O -4.67068 26.8443 31.8365
O -13.5308 26.0629 2.96818
Si -13.9681 27.6497 2.95941
Si -12.5704 24.7357 2.95367
O -10.1074 27.5821 2.9681
Si -10.9904 28.9712 2.95946
Si -9.76797 25.9794 2.95377
O -10.3991 29.7166 4.33101
O -12.6401 28.6729 2.95869
O -10.3987 29.7167 1.58844
O -9.15531 25.6457 4.41017
O -11.0246 25.0317 2.65953
O -8.81156 25.7671 1.66751
O -17.442 23.6144 0.225325
Si -18.1214 25.1136 0.216761
Si -16.2864 22.4531 0.211048
O -14.2971 25.6484 0.225343
Si -15.3858 26.8828 0.216773
Si -13.7119 24.1181 0.211038
O -14.9179 27.7111 1.58836
O -16.9689 26.3312 0.216025
O -14.9175 27.7114 31.7573
O -13.0546 23.884 1.66742
O -14.8056 22.9864 -0.0831542
O -12.7341 24.0574 31.8363
O -20.924 20.5865 2.96804
Si -21.8287 21.9614 2.95943
Si -19.6014 19.6196 2.95375
O -18.1344 23.0857 2.96815
Si -19.4022 24.1352 2.95939
Si -17.3178 21.6653 2.95368
O -19.0691 25.0264 4.33097
O -20.8801 23.3437 2.95866
O -19.0688 25.0266 1.58833
O -16.632 21.5365 4.41002
O -18.2219 20.3771 2.65935
O -16.3425 21.7577 1.66742
O -23.8914 17.0527 0.225452
Si -24.9995 18.2696 0.216882
Si -22.434 16.3041 0.211204
O -21.5254 19.9565 0.225635
Si -22.9416 20.7953 0.216821
Si -20.4974 18.6809 0.211128
O -22.7514 21.7275 1.58842
O -24.278 19.7829 0.216103
O -22.7511 21.7278 31.7573
O -19.8 18.6602 1.6675
O -21.1897 17.2676 -0.0835494
O -19.5483 18.9241 31.8365
O -26.2705 13.0989 2.9682
Si -27.5551 14.1278 2.95965
Si -24.7141 12.5874 2.95397
O -24.3871 16.3368 2.96838
Si -25.9168 16.9441 2.95954
Si -23.1725 15.2373 2.95384
O -25.8744 17.8946 4.33114
O -27.0787 15.7353 2.95884
O -25.8742 17.8949 1.58843
O -22.4806 15.3255 4.41029
O -23.6358 13.7334 2.65883
O -22.273 15.6257 1.66774
O -28.0021 8.82175 0.225665
Si -29.4318 9.63721 0.217147
Si -26.3849 8.56015 0.211452
O -26.6481 12.3146 0.22603
Si -28.2541 12.6751 0.217061
Si -25.2767 11.4185 0.211351
O -28.3607 13.6206 1.58867
O -29.2126 11.2995 0.216332
O -28.3604 13.621 31.7575
O -24.6072 11.6134 1.66789
O -25.4992 9.86076 -0.0840567
O -24.4489 11.9428 31.8369
O -29.0423 4.32628 2.9685
Si -30.582 4.90787 2.95985
Si -27.404 4.3213 2.95418
O -28.2521 7.98835 2.9688
Si -29.8947 8.0929 2.95979
Si -26.7574 7.31785 2.95409
O -30.1481 9.0101 4.3314
O -30.6258 6.584 2.95904
O -30.1479 9.01049 1.58872
O -26.1269 7.61481 4.41073
O -26.7333 5.74461 2.65832
O -26.0219 7.96549 1.6682
O -29.3646 -0.276517 0.226028
Si -30.9764 0.0565653 0.217204
Si -27.7458 -0.0246742 0.211562
O -29.1584 3.46413 0.226173
Si -30.797 3.30999 0.217228
Si -27.577 3.03613 0.211555
O -31.191 4.1762 1.58883
O -31.2825 1.70511 0.216434
O -31.1909 4.17662 31.7577
O -27.0009 3.42807 1.66826
O -27.3067 1.48617 -0.0844893
O -26.9521 3.79108 31.8372
O -28.9608 -4.8729 2.96866
Si -30.6049 -4.79656 2.9598
Si -27.4015 -4.37035 2.95411
O -29.344 -1.14611 2.96859
Si -30.9382 -1.55526 2.95983
Si -27.7151 -1.32097 2.95418
O -31.4632 -0.761545 4.33143
O -31.1659 -3.21646 2.95904
O -31.4632 -0.761124 1.58879
O -27.2077 -0.843693 4.41093
O -27.205 -2.80932 2.65802
O -27.2163 -0.477396 1.66831
O -27.8411 -9.34898 0.225987
Si -29.4769 -9.53134 0.217083
Si -26.3799 -8.60824 0.211368
O -28.804 -5.72844 0.225887
Si -30.3144 -6.38245 0.217166
Si -27.1678 -5.64578 0.211469
O -30.9573 -5.68088 1.58875
O -30.2787 -8.05878 0.216348
O -30.9574 -5.68048 31.7577
O -26.7416 -5.09483 1.66824
O -26.4305 -7.03568 -0.084546
O -26.8076 -4.73438 31.8371
O -26.0337 -13.5943 2.96847
Si -27.6207 -14.0308 2.95959
Si -24.7065 -12.6338 2.95386
O -27.552 -10.1694 2.96837
Si -28.9413 -11.052 2.95969
Si -25.949 -9.83134 2.95399
O -29.6862 -10.46 4.33128
O -28.6434 -12.7021 2.95887
O -29.6864 -10.4596 1.58868
O -25.6145 -9.2203 4.41075
O -25.0029 -11.0885 2.65811
O -25.7361 -8.87478 1.66808
O -23.5837 -17.5042 0.225607
Si -25.0827 -18.1838 0.216832
Si -22.4232 -16.3477 0.211121
O -25.6196 -14.3595 0.225562
Si -26.8534 -15.4487 0.21694
Si -24.0893 -13.7744 0.211217
O -27.682 -14.9806 1.5885
O -26.3008 -17.0317 0.216126
O -27.6822 -14.9803 31.7575
O -23.8547 -13.1183 1.66792
O -22.9579 -14.8678 -0.0844534
O -24.0288 -12.7963 31.8368
O -20.5519 -20.9825 2.96813
Si -21.926 -21.8885 2.95936
Si -19.5867 -19.6587 2.95367
O -23.0547 -18.1952 2.9682
Si -24.103 -19.4642 2.95945
Si -21.635 -17.3777 2.95376
O -24.9945 -19.1316 4.33103
O -23.3095 -20.9412 2.95865
O -24.9948 -19.1313 1.58841
O -21.5061 -16.6928 4.41042
O -20.3463 -18.2806 2.65824
O -21.7284 -16.4023 1.66774
O -17.0133 -23.9439 0.225295
Si -18.2288 -25.0537 0.216684
Si -16.2672 -22.4853 0.210975
O -19.9214 -21.5825 0.225472
Si -20.7581 -22.9998 0.216731
Si -18.647 -20.5528 0.211047
O -21.6907 -22.8108 1.5883
O -19.7433 -24.3345 0.215948
O -21.691 -22.8106 31.7572
O -18.6269 -19.8561 1.66765
O -17.233 -21.243 -0.0843888
O -18.8918 -19.604 31.8365
O -13.0551 -26.3152 2.96802
Si -14.0819 -27.6015 2.95928
Si -12.5464 -24.7579 2.9536
O -16.2967 -24.4378 2.96819
Si -16.9014 -25.9686 2.95932
Si -15.1992 -23.2215 2.95362
O -17.8521 -25.9279 4.33091
O -15.6904 -27.1282 2.95854
O -17.8524 -25.9276 1.58826
O -15.2883 -22.5301 4.41022
O -13.6945 -23.682 2.65825
O -15.5894 -22.3227 1.66759
O -8.77467 -28.0382 0.225395
Si -9.58759 -29.4693 0.216629
Si -8.51588 -26.4205 0.210969
O -12.2701 -26.691 0.2255
Si -12.6278 -28.2976 0.216663
Si -11.3764 -25.318 0.21098
O -13.5731 -28.4061 1.58826
O -11.2503 -29.2534 0.215871
O -13.5735 -28.4059 31.7571
O -11.5725 -24.6491 1.66759
O -9.81823 -25.5374 -0.0843956
O -11.9024 -24.4913 31.8365
O -4.27738 -29.07 2.96798
Si -4.85634 -30.6107 2.95923
Si -4.27491 -27.4318 2.9536
O -7.94059 -28.2865 2.96803
Si -8.04245 -29.9293 2.95925
Si -7.2727 -26.7906 2.95359
O -8.95919 -30.1843 4.33083
O -6.53232 -30.6577 2.95848
O -8.95954 -30.1842 1.58821
O -7.57108 -26.1606 4.41021
O -5.69943 -26.7634 2.65815
O -7.92164 -26.0563 1.6676
O 0.325977 -29.3852 0.225423
Si -0.00472494 -30.9976 0.216612
Si 0.0720915 -27.7667 0.210955
O -3.41465 -29.1847 0.225426
Si -3.25827 -30.8231 0.216601
Si -2.98914 -27.6026 0.210979
O -4.12376 -31.2186 1.5882
O -1.65273 -31.3063 0.215838
O -4.12417 -31.2185 31.7571
O -3.38245 -27.0272 1.6676
O -1.43949 -27.3296 -0.0844812
O -3.74496 -26.979 31.8365
O 4.92202 -28.9761 2.96805
Si 4.8476 -30.6203 2.95921
Si 4.41799 -27.4172 2.95352
O 1.19602 -29.3634 2.96795
Si 1.60689 -30.9572 2.95924
Si 1.36878 -27.7343 2.95357
O 0.813927 -31.4832 4.33081
O 3.26825 -31.1831 2.95844
O 0.813526 -31.4832 1.58822
O 0.890262 -27.2275 4.41018
O 2.8566 -27.222 2.65818
O 0.524682 -27.2366 1.66757
O 9.39732 -27.8527 0.225598
Si 9.58109 -29.4883 0.21653
Si 8.65576 -26.3918 0.210847
O 5.77796 -28.8183 0.225227
Si 6.43303 -30.3282 0.216567
Si 5.69369 -27.1821 0.210886
O 5.73218 -30.9718 1.58816
O 8.10927 -30.2913 0.21578
O 5.73176 -30.9719 31.7571
O 5.14168 -26.7566 1.66752
O 7.08303 -26.4433 -0.0843851
O 4.78209 -26.8228 31.8364
O 13.6421 -26.0434 2.96785
Si 14.0793 -27.6302 2.95906
Si 12.6813 -24.7165 2.95338
O 10.2182 -27.5629 2.96756
Si 11.1013 -28.9519 2.95913
Si 9.87909 -25.9601 2.95345
O 10.5097 -29.6971 4.33071
O 12.7511 -28.6534 2.95834
O 10.5094 -29.6974 1.58812
O 9.2672 -25.6262 4.41004
O 11.1358 -25.0131 2.65827
O 8.92257 -25.7476 1.66736
O 17.5519 -23.5929 0.225151
Si 18.2317 -25.0919 0.216436
Si 16.3955 -22.4324 0.21071
O 14.4077 -25.6289 0.225029
Si 15.497 -26.8628 0.216426
Si 13.8222 -24.0988 0.210733
O 15.0291 -27.6914 1.58798
O 17.0799 -26.3101 0.215682
O 15.0289 -27.6916 31.7569
O 13.1654 -23.8646 1.66727
O 14.9154 -22.9669 -0.084214
O 12.8442 -24.0384 31.8361
O 21.0311 -20.562 2.96766
Si 21.9368 -21.9363 2.95903
Si 19.7077 -19.5963 2.95332
O 18.2434 -23.0639 2.96783
Si 19.512 -24.1125 2.95906
Si 17.426 -21.6441 2.95334
O 19.1795 -25.0039 4.33066
O 20.9893 -23.3195 2.95829
O 19.1791 -25.0042 1.58802
O 16.7406 -21.5154 4.40987
O 18.3291 -20.3553 2.65849
O 16.4506 -21.7373 1.66722
O 23.9943 -17.025 0.225098
Si 25.1035 -18.241 0.216388
Si 22.5363 -16.2778 0.210695
O 21.6316 -19.9314 0.225139
Si 23.0484 -20.769 0.2164
Si 20.6024 -18.6567 0.210693
O 22.8592 -21.7015 1.58796
O 24.3837 -19.7551 0.215633
O 22.8589 -21.7017 31.7569
O 19.9053 -18.6367 1.66717
O 21.2931 -17.2427 -0.0841178
O 19.6536 -18.9011 31.8361
O 26.369 -13.0687 2.96779
Si 27.6546 -14.0965 2.95901
Si 24.8123 -12.5583 2.95334
O 24.489 -16.3083 2.96774
Si 26.0193 -16.9144 2.95902
Si 23.2734 -15.21 2.95333
O 25.9779 -17.8649 4.33062
O 27.1799 -15.7045 2.95827
O 25.9777 -17.8653 1.58796
O 22.5817 -15.2991 4.4098
O 23.7349 -13.7055 2.65855
O 22.3744 -15.5994 1.66715
O 28.097 -8.79008 0.224999
Si 29.5272 -9.60456 0.216449
Si 26.4796 -8.5292 0.21076
O 26.7459 -12.2837 0.225034
Si 28.352 -12.6433 0.216395
Si 25.3737 -11.3886 0.210709
O 28.4595 -13.5886 1.58797
O 29.3094 -11.2669 0.215675
O 28.4594 -13.589 31.7569
O 24.7044 -11.5845 1.66719
O 25.5946 -9.83048 -0.0840546
O 24.5464 -11.9136 31.8361
O 29.1353 -4.29415 2.96777
Si 30.6753 -4.87517 2.95918
Si 27.497 -4.28916 2.95351
O 28.3465 -7.9559 2.96798
Si 29.9891 -8.06017 2.9591
Si 26.8514 -7.28617 2.95342
O 30.243 -8.97718 4.33068
O 30.7198 -6.55118 2.95838
O 30.2429 -8.97751 1.58801
O 26.2209 -7.58417 4.40989
O 26.8263 -5.71269 2.65856
O 26.1163 -7.934 1.66729
O 29.4584 0.308851 0.225349
Si 31.0702 -0.0243788 0.216683
Si 27.8395 0.0576387 0.210983
O 29.2516 -3.4313 0.225448
Si 30.8903 -3.27752 0.216572
Si 27.6701 -3.00338 0.210896
O 31.2843 -4.14361 1.58816
O 31.3761 -1.67286 0.215861
O 31.2842 -4.14401 31.757
O 27.0939 -3.39613 1.66739
O 27.3996 -1.45321 -0.0841765
O 27.0453 -3.75811 31.8363
O 29.0578 4.90573 8.45339
Si 30.7019 4.82863 8.44467
Si 27.4981 4.40433 8.43899
O 29.4383 1.17909 8.45337
Si 31.0328 1.58728 8.44458
Si 27.8095 1.35451 8.43887
O 31.5574 0.793428 9.81618
O 31.2618 3.24823 8.44385
O 31.5574 0.793022 7.07351
O 27.3018 0.876735 9.89543
O 27.3 2.84331 8.14359
O 27.3103 0.511344 7.15284
O 27.9427 9.38323 5.71095
Si 29.5786 9.56432 5.70214
Si 26.4808 8.6438 5.69647
O 28.9018 5.76188 5.71087
Si 30.4127 6.41465 5.70205
Si 27.2655 5.68038 5.69635
O 31.055 5.7126 7.07364
O 30.3789 8.09098 5.70133
O 31.0551 5.71218 4.33101
O 26.8388 5.12926 7.15297
O 26.5295 7.0711 5.40078
O 26.9044 4.76938 4.41038
O 26.1402 13.6308 8.45359
Si 27.7276 14.0659 8.4449
Si 24.8122 12.6714 8.43925
O 27.6546 10.2042 8.45356
Si 29.0447 11.0856 8.44478
Si 26.0513 9.86751 8.4391
O 29.789 10.4927 9.81638
O 28.7487 12.7359 8.44407
O 29.7891 10.4923 7.0737
O 25.7161 9.25661 9.89576
O 25.1068 11.1259 8.14326
O 25.8373 8.91123 7.15317
O 23.6942 17.5433 5.71111
Si 25.1938 18.2217 5.70245
Si 22.5331 16.3876 5.69676
O 25.7272 14.3964 5.71119
Si 26.9619 15.4848 5.70228
Si 24.1965 13.8127 5.69661
O 27.79 15.0158 7.07385
O 26.4108 17.0683 5.7016
O 27.7901 15.0154 4.33123
O 23.961 13.1569 7.1533
O 23.0664 14.9074 5.40057
O 24.1349 12.8346 4.41076
O 20.665 21.0237 8.45409
Si 22.0396 21.9289 8.4452
Si 19.6995 19.7002 8.4395
O 23.1664 18.2345 8.45412
Si 24.2152 19.503 8.44511
Si 21.7461 17.418 8.43942
O 25.1064 19.1697 9.81675
O 23.4224 20.9806 8.44436
O 25.1067 19.1693 7.07402
O 21.6162 16.7336 9.89617
O 20.4584 18.322 8.14327
O 21.8388 16.4424 7.15356
O 17.127 23.9855 5.71157
Si 18.3426 25.0951 5.70261
Si 16.3811 22.5269 5.69693
O 20.0352 21.6235 5.71132
Si 20.8719 23.0408 5.70257
Si 18.7606 20.5943 5.69685
O 21.8045 22.8514 7.07415
O 19.8572 24.3756 5.70181
O 21.8048 22.8511 4.33156
O 18.7396 19.8982 7.15367
O 17.3469 21.2849 5.40063
O 19.0052 19.6453 4.41109
O 13.1681 26.3552 8.45412
Si 14.1946 27.6418 8.44521
Si 12.6601 24.7977 8.43957
O 16.4108 24.4789 8.45393
Si 17.0149 26.0099 8.44523
Si 15.3134 23.2625 8.43956
O 17.9657 25.9692 9.81683
O 15.8032 27.1689 8.44444
O 17.966 25.969 7.0742
O 15.4021 22.5717 9.89638
O 13.809 23.7228 8.14328
O 15.704 22.3636 7.15371
O 8.88635 28.0745 5.7115
Si 9.69841 29.5061 5.70256
Si 8.62887 26.4566 5.69686
O 12.3832 26.7302 5.71129
Si 12.7398 28.337 5.70258
Si 11.4902 25.3567 5.69694
O 13.6852 28.446 7.07414
O 11.3613 29.2915 5.70179
O 13.6855 28.4459 4.33155
O 11.6863 24.6883 7.15373
O 9.93211 25.5751 5.40081
O 12.0169 24.5303 4.41105
O 4.38803 29.1013 8.45404
Si 4.96575 30.6425 8.44512
Si 4.38709 27.4631 8.43939
O 8.05227 28.3217 8.45381
Si 8.15269 29.9645 8.44517
Si 7.38555 26.8252 8.43948
O 9.06923 30.2204 9.81674
O 6.6417 30.6913 8.44437
O 9.06965 30.2204 7.07417
O 7.68418 26.1958 9.89625
O 5.81236 26.7965 8.14375
O 8.03529 26.0916 7.15356
O -0.215611 29.4113 5.71118
Si 0.113714 31.0239 5.70235
Si 0.0396445 27.793 5.69663
O 3.52525 29.2148 5.71105
Si 3.36743 30.8531 5.70246
Si 3.10112 27.6323 5.69676
O 4.2325 31.2494 7.07405
O 1.76137 31.3344 5.70163
O 4.23294 31.2494 4.33146
O 3.49499 27.0575 7.15346
O 1.55176 27.3575 5.40144
O 3.8577 27.0096 4.41072
O -4.81116 28.9978 8.45365
Si -4.73798 30.6421 8.44483
Si -4.30633 27.4393 8.43914
O -1.08592 29.3884 8.45351
Si -1.49776 30.9819 8.44493
Si -1.25727 27.759 8.43924
O -0.705345 31.5087 9.81647
O -3.15923 31.2064 8.44413
O -0.704949 31.5087 7.07397
O -0.77787 27.2529 9.8958
O -2.74466 27.2451 8.14435
O -0.412724 27.2623 7.15313
O -9.28608 27.8723 5.71082
Si -9.47052 29.5078 5.70209
Si -8.54425 26.4116 5.69641
O -5.66753 28.8393 5.71077
Si -6.32305 30.349 5.70218
Si -5.5823 27.2032 5.6965
O -5.62268 30.9931 7.07376
O -7.99919 30.3115 5.70139
O -5.62231 30.9932 4.33116
O -5.02938 26.7781 7.15298
O -6.9713 26.4633 5.40199
O -4.67068 26.8443 4.41026
O -13.5308 26.0629 8.45344
Si -13.9681 27.6497 8.44466
Si -12.5704 24.7357 8.43892
O -10.1074 27.5821 8.45336
Si -10.9904 28.9712 8.44471
Si -9.76797 25.9794 8.43902
O -10.3991 29.7166 9.81626
O -12.6401 28.6729 8.44394
O -10.3987 29.7167 7.0737
O -9.15531 25.6457 9.89542
O -11.0246 25.0317 8.14479
O -8.81156 25.7671 7.15277
O -17.442 23.6144 5.71058
Si -18.1214 25.1136 5.70202
Si -16.2864 22.4531 5.6963
O -14.2971 25.6484 5.7106
Si -15.3858 26.8828 5.70203
Si -13.7119 24.1181 5.69629
O -14.9179 27.7111 7.07362
O -16.9689 26.3312 5.70128
O -14.9175 27.7114 4.33098
O -13.0546 23.884 7.15268
O -14.8056 22.9864 5.4021
O -12.7341 24.0574 4.41002
O -20.924 20.5865 8.45329
Si -21.8287 21.9614 8.44468
Si -19.6014 19.6196 8.439
O -18.1344 23.0857 8.4534
Si -19.4022 24.1352 8.44464
Si -17.3178 21.6653 8.43894
O -19.0691 25.0264 9.81622
O -20.8801 23.3437 8.44392
O -19.0688 25.0266 7.07358
O -16.632 21.5365 9.89528
O -18.2219 20.3771 8.14461
O -16.3425 21.7577 7.15268
O -23.8914 17.0527 5.71071
Si -24.9995 18.2696 5.70214
Si -22.434 16.3041 5.69646
O -21.5254 19.9565 5.71089
Si -22.9416 20.7953 5.70208
Si -20.4974 18.6809 5.69638
O -22.7514 21.7275 7.07367
O -24.278 19.7829 5.70136
O -22.7511 21.7278 4.331
O -19.8 18.6602 7.15276
O -21.1897 17.2676 5.4017
O -19.5483 18.9241 4.4102
O -26.2705 13.0989 8.45345
Si -27.5551 14.1278 8.44491
Si -24.7141 12.5874 8.43922
O -24.3871 16.3368 8.45363
Si -25.9168 16.9441 8.44479
Si -23.1725 15.2373 8.4391
O -25.8744 17.8946 9.81639
O -27.0787 15.7353 8.44409
O -25.8742 17.8949 7.07369
O -22.4806 15.3255 9.89554
O -23.6358 13.7334 8.14408
O -22.273 15.6257 7.15299
O -28.0021 8.82175 5.71092
Si -29.4318 9.63721 5.7024
Si -26.3849 8.56015 5.69671
O -26.6481 12.3146 5.71128
Si -28.2541 12.6751 5.70231
Si -25.2767 11.4185 5.6966
O -28.3607 13.6206 7.07392
O -29.2126 11.2995 5.70159
O -28.3604 13.621 4.33122
O -24.6072 11.6134 7.15315
O -25.4992 9.86076 5.4012
O -24.4489 11.9428 4.41062
O -29.0423 4.32628 8.45375
Si -30.582 4.90787 8.4451
Si -27.404 4.3213 8.43944
O -28.2521 7.98835 8.45406
Si -29.8947 8.0929 8.44504
Si -26.7574 7.31785 8.43934
O -30.1481 9.0101 9.81665
O -30.6258 6.584 8.44429
O -30.1479 9.01049 7.07398
O -26.1269 7.61481 9.89598
O -26.7333 5.74461 8.14357
O -26.0219 7.96549 7.15345
O -29.3646 -0.276517 5.71128
Si -30.9764 0.0565653 5.70246
Si -27.7458 -0.0246742 5.69682
O -29.1584 3.46413 5.71143
Si -30.797 3.30999 5.70248
Si -27.577 3.03613 5.69681
O -31.191 4.1762 7.07408
O -31.2825 1.70511 5.70169
O -31.1909 4.17662 4.33144
O -27.0009 3.42807 7.15351
O -27.3067 1.48617 5.40077
O -26.9521 3.79108 4.41094
O -28.9608 -4.8729 8.45392
Si -30.6049 -4.79656 8.44505
Si -27.4015 -4.37035 8.43936
O -29.344 -1.14611 8.45385
Si -30.9382 -1.55526 8.44508
Si -27.7151 -1.32097 8.43944
O -31.4632 -0.761545 9.81668
O -31.1659 -3.21646 8.44429
O -31.4632 -0.761124 7.07404
O -27.2077 -0.843693 9.89618
O -27.205 -2.80932 8.14328
O -27.2163 -0.477396 7.15357
O -27.8411 -9.34898 5.71124
Si -29.4769 -9.53134 5.70234
Si -26.3799 -8.60824 5.69662
O -28.804 -5.72844 5.71114
Si -30.3144 -6.38245 5.70242
Si -27.1678 -5.64578 5.69672
O -30.9573 -5.68088 7.074
O -30.2787 -8.05878 5.7016
O -30.9574 -5.68048 4.3314
O -26.7416 -5.09483 7.1535
O -26.4305 -7.03568 5.40071
O -26.8076 -4.73438 4.41084
O -26.0337 -13.5943 8.45373
Si -27.6207 -14.0308 8.44484
Si -24.7065 -12.6338 8.43911
O -27.552 -10.1694 8.45362
Si -28.9413 -11.052 8.44494
Si -25.949 -9.83134 8.43925
O -29.6862 -10.46 9.81654
O -28.6434 -12.7021 8.44413
O -29.6864 -10.4596 7.07393
O -25.6145 -9.2203 9.89601
O -25.0029 -11.0885 8.14337
O -25.7361 -8.87478 7.15333
O -23.5837 -17.5042 5.71086
Si -25.0827 -18.1838 5.70209
Si -22.4232 -16.3477 5.69638
O -25.6196 -14.3595 5.71082
Si -26.8534 -15.4487 5.70219
Si -24.0893 -13.7744 5.69647
O -27.682 -14.9806 7.07375
O -26.3008 -17.0317 5.70138
O -27.6822 -14.9803 4.33119
O -23.8547 -13.1183 7.15318
O -22.9579 -14.8678 5.4008
O -24.0288 -12.7963 4.41051
O -20.5519 -20.9825 8.45338
Si -21.926 -21.8885 8.44462
Si -19.5867 -19.6587 8.43893
O -23.0547 -18.1952 8.45346
Si -24.103 -19.4642 8.4447
Si -21.635 -17.3777 8.43901
O -24.9945 -19.1316 9.81629
O -23.3095 -20.9412 8.44391
O -24.9948 -19.1313 7.07367
O -21.5061 -16.6928 9.89567
O -20.3463 -18.2806 8.14349
O -21.7284 -16.4023 7.153
O -17.0133 -23.9439 5.71055
Si -18.2288 -25.0537 5.70194
Si -16.2672 -22.4853 5.69623
O -19.9214 -21.5825 5.71073
Si -20.7581 -22.9998 5.70199
Si -18.647 -20.5528 5.6963
O -21.6907 -22.8108 7.07356
O -19.7433 -24.3345 5.7012
O -21.691 -22.8106 4.33095
O -18.6269 -19.8561 7.15291
O -17.233 -21.243 5.40087
O -18.8918 -19.604 4.41027
O -13.0551 -26.3152 8.45327
Si -14.0819 -27.6015 8.44454
Si -12.5464 -24.7579 8.43886
O -16.2967 -24.4378 8.45344
Si -16.9014 -25.9686 8.44457
Si -15.1992 -23.2215 8.43887
O -17.8521 -25.9279 9.81616
O -15.6904 -27.1282 8.44379
O -17.8524 -25.9276 7.07351
O -15.2883 -22.5301 9.89547
O -13.6945 -23.682 8.1435
O -15.5894 -22.3227 7.15284
O -8.77467 -28.0382 5.71065
Si -9.58759 -29.4693 5.70188
Si -8.51588 -26.4205 5.69622
O -12.2701 -26.691 5.71075
Si -12.6278 -28.2976 5.70192
Si -11.3764 -25.318 5.69623
O -13.5731 -28.4061 7.07352
O -11.2503 -29.2534 5.70112
O -13.5735 -28.4059 4.33087
O -11.5725 -24.6491 7.15285
O -9.81823 -25.5374 5.40086
O -11.9024 -24.4913 4.41024
O -4.27738 -29.07 8.45324
Si -4.85634 -30.6107 8.44449
Si -4.27491 -27.4318 8.43886
O -7.94059 -28.2865 8.45328
Si -8.04245 -29.9293 8.44451
Si -7.2727 -26.7906 8.43885
O -8.95919 -30.1843 9.81608
O -6.53232 -30.6577 8.44373
O -8.95954 -30.1842 7.07346
O -7.57108 -26.1606 9.89547
O -5.69943 -26.7634 8.1434
O -7.92164 -26.0563 7.15286
O 0.325977 -29.3852 5.71068
Si -0.00472494 -30.9976 5.70187
Si 0.0720915 -27.7667 5.69621
O -3.41465 -29.1847 5.71068
Si -3.25827 -30.8231 5.70186
Si -2.98914 -27.6026 5.69623
O -4.12376 -31.2186 7.07346
O -1.65273 -31.3063 5.70109
O -4.12417 -31.2185 4.33081
O -3.38245 -27.0272 7.15285
O -1.43949 -27.3296 5.40077
O -3.74496 -26.979 4.41022
O 4.92202 -28.9761 8.4533
Si 4.8476 -30.6203 8.44447
Si 4.41799 -27.4172 8.43877
O 1.19602 -29.3634 8.4532
Si 1.60689 -30.9572 8.44449
Si 1.36878 -27.7343 8.43882
O 0.813927 -31.4832 9.81606
O 3.26825 -31.1831 8.4437
O 0.813526 -31.4832 7.07347
O 0.890262 -27.2275 9.89544
O 2.8566 -27.222 8.14344
O 0.524682 -27.2366 7.15282
O 9.39732 -27.8527 5.71085
Si 9.58109 -29.4883 5.70178
Si 8.65576 -26.3918 5.6961
O 5.77796 -28.8183 5.71048
Si 6.43303 -30.3282 5.70182
Si 5.69369 -27.1821 5.69614
O 5.73218 -30.9718 7.07341
O 8.10927 -30.2913 5.70103
O 5.73176 -30.9719 4.33081
O 5.14168 -26.7566 7.15277
O 7.08303 -26.4433 5.40087
O 4.78209 -26.8228 4.4101
O 13.6421 -26.0434 8.45311
Si 14.0793 -27.6302 8.44431
Si 12.6813 -24.7165 8.43863
O 10.2182 -27.5629 8.45282
Si 11.1013 -28.9519 8.44438
Si 9.87909 -25.9601 8.4387
O 10.5097 -29.6971 9.81597
O 12.7511 -28.6534 8.4436
O 10.5094 -29.6974 7.07337
O 9.2672 -25.6262 9.89529
O 11.1358 -25.0131 8.14353
O 8.92257 -25.7476 7.15262
O 17.5519 -23.5929 5.71041
Si 18.2317 -25.0919 5.70169
Si 16.3955 -22.4324 5.69596
O 14.4077 -25.6289 5.71028
Si 15.497 -26.8628 5.70168
Si 13.8222 -24.0988 5.69599
O 15.0291 -27.6914 7.07324
O 17.0799 -26.3101 5.70094
O 15.0289 -27.6916 4.33064
O 13.1654 -23.8646 7.15253
O 14.9154 -22.9669 5.40104
O 12.8442 -24.0384 4.40988
O 21.0311 -20.562 8.45291
Si 21.9368 -21.9363 8.44428
Si 19.7077 -19.5963 8.43857
O 18.2434 -23.0639 8.45308
Si 19.512 -24.1125 8.44431
Si 17.426 -21.6441 8.4386
O 19.1795 -25.0039 9.81592
O 20.9893 -23.3195 8.44354
O 19.1791 -25.0042 7.07327
O 16.7406 -21.5154 9.89512
O 18.3291 -20.3553 8.14375
O 16.4506 -21.7373 7.15247
O 23.9943 -17.025 5.71035
Si 25.1035 -18.241 5.70164
Si 22.5363 -16.2778 5.69595
O 21.6316 -19.9314 5.71039
Si 23.0484 -20.769 5.70165
Si 20.6024 -18.6567 5.69595
O 22.8592 -21.7015 7.07321
O 24.3837 -19.7551 5.70089
O 22.8589 -21.7017 4.33063
O 19.9053 -18.6367 7.15242
O 21.2931 -17.2427 5.40114
O 19.6536 -18.9011 4.40982
O 26.369 -13.0687 8.45304
Si 27.6546 -14.0965 8.44426
Si 24.8123 -12.5583 8.43859
O 24.489 -16.3083 8.45299
Si 26.0193 -16.9144 8.44428
Si 23.2734 -15.21 8.43859
O 25.9779 -17.8649 9.81587
O 27.1799 -15.7045 8.44352
O 25.9777 -17.8653 7.07322
O 22.5817 -15.2991 9.89505
O 23.7349 -13.7055 8.14381
O 22.3744 -15.5994 7.1524
O 28.097 -8.79008 5.71025
Si 29.5272 -9.60456 5.7017
Si 26.4796 -8.5292 5.69601
O 26.7459 -12.2837 5.71029
Si 28.352 -12.6433 5.70165
Si 25.3737 -11.3886 5.69596
O 28.4595 -13.5886 7.07322
O 29.3094 -11.2669 5.70093
O 28.4594 -13.589 4.33058
O 24.7044 -11.5845 7.15244
O 25.5946 -9.83048 5.4012
O 24.5464 -11.9136 4.40983
O 29.1353 -4.29415 8.45302
Si 30.6753 -4.87517 8.44443
Si 27.497 -4.28916 8.43877
O 28.3465 -7.9559 8.45324
Si 29.9891 -8.06017 8.44435
Si 26.8514 -7.28617 8.43867
O 30.243 -8.97718 9.81593
O 30.7198 -6.55118 8.44363
O 30.2429 -8.97751 7.07327
O 26.2209 -7.58417 9.89514
O 26.8263 -5.71269 8.14381
O 26.1163 -7.934 7.15255
O 29.4584 0.308851 5.7106
Si 31.0702 -0.0243788 5.70194
Si 27.8395 0.0576387 5.69624
O 29.2516 -3.4313 5.7107
Si 30.8903 -3.27752 5.70183
Si 27.6701 -3.00338 5.69615
O 31.2843 -4.14361 7.07342
O 31.3761 -1.67286 5.70112
O 31.2842 -4.14401 4.33077
O 27.0939 -3.39613 7.15264
O 27.3996 -1.45321 5.40108
O 27.0453 -3.75811 4.41006
O 29.0578 4.90573 13.9386
Si 30.7019 4.82863 13.9299
Si 27.4981 4.40433 13.9242
O 29.4383 1.17909 13.9386
Si 31.0328 1.58728 13.9298
Si 27.8095 1.35451 13.9241
O 31.5574 0.793428 15.3014
O 31.2618 3.24823 13.9291
O 31.5574 0.793022 12.5588
O 27.3018 0.876735 15.3807
O 27.3 2.84331 13.6288
O 27.3103 0.511344 12.6381
O 27.9427 9.38323 11.1962
Si 29.5786 9.56432 11.1874
Si 26.4808 8.6438 11.1817
O 28.9018 5.76188 11.1961
Si 30.4127 6.41465 11.1873
Si 27.2655 5.68038 11.1816
O 31.055 5.7126 12.5589
O 30.3789 8.09098 11.1866
O 31.0551 5.71218 9.81626
O 26.8388 5.12926 12.6382
O 26.5295 7.0711 10.886
O 26.9044 4.76938 9.89564
O 26.1402 13.6308 13.9388
Si 27.7276 14.0659 13.9302
Si 24.8122 12.6714 13.9245
O 27.6546 10.2042 13.9388
Si 29.0447 11.0856 13.93
Si 26.0513 9.86751 13.9244
O 29.789 10.4927 15.3016
O 28.7487 12.7359 13.9293
O 29.7891 10.4923 12.559
O 25.7161 9.25661 15.381
O 25.1068 11.1259 13.6285
O 25.8373 8.91123 12.6384
O 23.6942 17.5433 11.1964
Si 25.1938 18.2217 11.1877
Si 22.5331 16.3876 11.182
O 25.7272 14.3964 11.1964
Si 26.9619 15.4848 11.1875
Si 24.1965 13.8127 11.1819
O 27.79 15.0158 12.5591
O 26.4108 17.0683 11.1869
O 27.7901 15.0154 9.81649
O 23.961 13.1569 12.6386
O 23.0664 14.9074 10.8858
O 24.1349 12.8346 9.89602
O 20.665 21.0237 13.9393
Si 22.0396 21.9289 13.9305
Si 19.6995 19.7002 13.9248
O 23.1664 18.2345 13.9394
Si 24.2152 19.503 13.9304
Si 21.7461 17.418 13.9247
O 25.1064 19.1697 15.302
O 23.4224 20.9806 13.9296
O 25.1067 19.1693 12.5593
O 21.6162 16.7336 15.3814
O 20.4584 18.322 13.6285
O 21.8388 16.4424 12.6388
O 17.127 23.9855 11.1968
Si 18.3426 25.0951 11.1879
Si 16.3811 22.5269 11.1822
O 20.0352 21.6235 11.1966
Si 20.8719 23.0408 11.1878
Si 18.7606 20.5943 11.1821
O 21.8045 22.8514 12.5594
O 19.8572 24.3756 11.1871
O 21.8048 22.8511 9.81682
O 18.7396 19.8982 12.6389
O 17.3469 21.2849 10.8859
O 19.0052 19.6453 9.89634
O 13.1681 26.3552 13.9394
Si 14.1946 27.6418 13.9305
Si 12.6601 24.7977 13.9248
O 16.4108 24.4789 13.9392
Si 17.0149 26.0099 13.9305
Si 15.3134 23.2625 13.9248
O 17.9657 25.9692 15.3021
O 15.8032 27.1689 13.9297
O 17.966 25.969 12.5595
O 15.4021 22.5717 15.3816
O 13.809 23.7228 13.6285
O 15.704 22.3636 12.639
O 8.88635 28.0745 11.1968
Si 9.69841 29.5061 11.1878
Si 8.62887 26.4566 11.1821
O 12.3832 26.7302 11.1965
Si 12.7398 28.337 11.1878
Si 11.4902 25.3567 11.1822
O 13.6852 28.446 12.5594
O 11.3613 29.2915 11.187
O 13.6855 28.4459 9.81681
O 11.6863 24.6883 12.639
O 9.93211 25.5751 10.8861
O 12.0169 24.5303 9.89631
O 4.38803 29.1013 13.9393
Si 4.96575 30.6425 13.9304
Si 4.38709 27.4631 13.9246
O 8.05227 28.3217 13.9391
Si 8.15269 29.9645 13.9304
Si 7.38555 26.8252 13.9247
O 9.06923 30.2204 15.302
O 6.6417 30.6913 13.9296
O 9.06965 30.2204 12.5594
O 7.68418 26.1958 15.3815
O 5.81236 26.7965 13.629
O 8.03529 26.0916 12.6388
O -0.215611 29.4113 11.1964
Si 0.113714 31.0239 11.1876
Si 0.0396445 27.793 11.1819
O 3.52525 29.2148 11.1963
Si 3.36743 30.8531 11.1877
Si 3.10112 27.6323 11.182
O 4.2325 31.2494 12.5593
O 1.76137 31.3344 11.1869
O 4.23294 31.2494 9.81671
O 3.49499 27.0575 12.6387
O 1.55176 27.3575 10.8867
O 3.8577 27.0096 9.89597
O -4.81116 28.9978 13.9389
Si -4.73798 30.6421 13.9301
Si -4.30633 27.4393 13.9244
O -1.08592 29.3884 13.9388
Si -1.49776 30.9819 13.9302
Si -1.25727 27.759 13.9245
O -0.705345 31.5087 15.3017
O -3.15923 31.2064 13.9294
O -0.704949 31.5087 12.5592
O -0.77787 27.2529 15.3811
O -2.74466 27.2451 13.6296
O -0.412724 27.2623 12.6384
O -9.28608 27.8723 11.1961
Si -9.47052 29.5078 11.1873
Si -8.54425 26.4116 11.1817
O -5.66753 28.8393 11.196
Si -6.32305 30.349 11.1874
Si -5.5823 27.2032 11.1818
O -5.62268 30.9931 12.559
O -7.99919 30.3115 11.1866
O -5.62231 30.9932 9.81641
O -5.02938 26.7781 12.6382
O -6.9713 26.4633 10.8872