2592
 Atoms. Timestep: 23675
O 6.21823 2.7059 13.0701
Si 7.95226 2.68521 9.99849
Si 4.78605 2.30861 12.4139
O 8.49445 1.12854 9.97019
O 4.90467 1.16438 11.021
O 4.10219 5.66457 7.22438
Si 5.58705 6.30998 6.9647
Si 3.31388 4.54046 8.14001
O 6.31235 2.71088 9.96732
Si 7.49328 3.74224 7.05284
Si 4.79952 2.18695 9.4479
O 8.22894 3.42339 8.52162
O 6.88779 5.28587 7.01077
O 8.21597 3.38158 112.171
O 4.39591 3.09275 10.9176
O 4.72047 3.59216 8.47998
O 4.91759 0.911157 8.39787
O 3.67211 5.27959 9.74446
Si 4.47034 6.78366 9.92158
Si 3.01926 4.24283 11.0337
O 5.34361 6.90018 11.3413
O 5.34477 6.97424 8.50107
O 3.54974 3.64585 12.6393
O 3.02448 3.25542 9.47733
O 0.765813 6.73837 13.0701
Si 1.65075 8.22977 9.99845
Si 0.393795 5.29942 12.4139
O 3.26995 7.92093 9.97018
O 1.44402 4.83006 11.021
O -2.85445 6.38496 7.22437
Si -2.67099 7.99359 6.9647
Si -2.27511 5.1402 8.14002
O 0.808452 6.82248 9.96715
Si 0.505837 8.36076 7.05281
Si 0.505895 5.25029 9.44791
O 1.14983 8.83846 8.52157
O -1.13374 8.60811 7.01076
O 1.17952 8.80632 112.171
O -0.480376 5.3536 10.9176
O -0.750617 5.88432 8.47998
O 1.66979 4.71463 8.39788
O -2.7361 5.82 9.74446
Si -3.63956 7.26331 9.92158
Si -2.16465 4.73625 11.0337
O -3.30385 8.07785 11.3413
O -3.3674 8.11588 8.50106
O -1.3824 4.89723 12.6393
O -1.30686 4.24714 9.47735
O -5.45249 4.03233 13.07
Si -6.30164 5.54442 9.99844
Si -4.39231 2.9907 12.4139
O -5.22463 6.79231 9.97017
O -3.46075 3.66559 11.021
O -6.95651 0.720386 7.22436
Si -8.25791 1.68358 6.9647
Si -5.58885 0.59973 8.14001
O -5.50402 4.11132 9.96712
Si -6.98751 4.61838 7.0528
Si -4.29372 3.06322 9.44791
O -7.07923 5.41494 8.52155
O -8.0215 3.32213 7.01076
O -7.03655 5.42457 112.171
O -4.8763 2.26073 10.9176
O -5.47105 2.29204 8.47998
O -3.24791 3.8034 8.39787
O -6.40807 0.540401 9.74446
Si -8.10975 0.479654 9.92158
Si -5.18378 0.493421 11.0337
O -8.6473 1.17765 11.3413
O -8.71202 1.14162 8.50106
O -4.93208 1.25136 12.6393
O -4.33131 0.991747 9.47734
O -6.21823 -2.7059 13.0701
Si -7.95226 -2.68521 9.99849
Si -4.78605 -2.30861 12.4139
O -8.49445 -1.12854 9.97019
O -4.90467 -1.16438 11.021
O -4.10219 -5.66457 7.22438
Si -5.58705 -6.30998 6.9647
Si -3.31388 -4.54046 8.14001
O -6.31235 -2.71088 9.96732
Si -7.49328 -3.74224 7.05284
Si -4.79952 -2.18695 9.4479
O -8.22894 -3.42339 8.52162
O -6.88779 -5.28587 7.01077
O -8.21597 -3.38158 112.171
O -4.39591 -3.09275 10.9176
O -4.72047 -3.59216 8.47998
O -4.91759 -0.911157 8.39787
O -3.67211 -5.27959 9.74446
Si -4.47034 -6.78366 9.92158
Si -3.01926 -4.24283 11.0337
O -5.34361 -6.90018 11.3413
O -5.34477 -6.97424 8.50107
O -3.54974 -3.64585 12.6393
O -3.02448 -3.25542 9.47733
O -0.765813 -6.73837 13.0701
Si -1.65075 -8.22977 9.99845
Si -0.393795 -5.29942 12.4139
O -3.26995 -7.92093 9.97018
O -1.44402 -4.83006 11.021
O 2.85445 -6.38496 7.22437
Si 2.67099 -7.99359 6.9647
Si 2.27511 -5.1402 8.14002
O -0.808452 -6.82248 9.96715
Si -0.505837 -8.36076 7.05281
Si -0.505895 -5.25029 9.44791
O -1.14983 -8.83846 8.52157
O 1.13374 -8.60811 7.01076
O -1.17952 -8.80632 112.171
O 0.480376 -5.3536 10.9176
O 0.750617 -5.88432 8.47998
O -1.66979 -4.71463 8.39788
O 2.7361 -5.82 9.74446
Si 3.63956 -7.26331 9.92158
Si 2.16465 -4.73625 11.0337
O 3.30385 -8.07785 11.3413
O 3.3674 -8.11588 8.50106
O 1.3824 -4.89723 12.6393
O 1.30686 -4.24714 9.47735
O 5.45249 -4.03233 13.07
Si 6.30164 -5.54442 9.99844
Si 4.39231 -2.9907 12.4139
O 5.22463 -6.79231 9.97017
O 3.46075 -3.66559 11.021
O 6.95651 -0.720386 7.22436
Si 8.25791 -1.68358 6.9647
Si 5.58885 -0.59973 8.14001
O 5.50402 -4.11132 9.96712
Si 6.98751 -4.61838 7.0528
Si 4.29372 -3.06322 9.44791
O 7.07923 -5.41494 8.52155
O 8.0215 -3.32213 7.01076
O 7.03655 -5.42457 112.171
O 4.8763 -2.26073 10.9176
O 5.47105 -2.29204 8.47998
O 3.24791 -3.8034 8.39787
O 6.40807 -0.540401 9.74446
Si 8.10975 -0.479654 9.92158
Si 5.18378 -0.493421 11.0337
O 8.6473 -1.17765 11.3413
O 8.71202 -1.14162 8.50106
O 4.93208 -1.25136 12.6393
O 4.33131 -0.991747 9.47734
O 6.21823 2.7059 18.9917
Si 7.95226 2.68521 15.9201
Si 4.78605 2.30861 18.3355
O 8.49445 1.12854 15.8918
O 4.90467 1.16438 16.9426
O 4.10219 5.66457 13.146
Si 5.58705 6.30998 12.8863
Si 3.31388 4.54046 14.0616
O 6.31235 2.71088 15.8889
Si 7.49328 3.74224 12.9745
Si 4.79952 2.18695 15.3695
O 8.22894 3.42339 14.4432
O 6.88779 5.28587 12.9324
O 8.21597 3.38158 11.5037
O 4.39591 3.09275 16.8392
O 4.72047 3.59216 14.4016
O 4.91759 0.911157 14.3195
O 3.67211 5.27959 15.6661
Si 4.47034 6.78366 15.8432
Si 3.01926 4.24283 16.9553
O 5.34361 6.90018 17.2629
O 5.34477 6.97424 14.4227
O 3.54974 3.64585 18.5609
O 3.02448 3.25542 15.3989
O 0.765813 6.73837 18.9917
Si 1.65075 8.22977 15.9201
Si 0.393795 5.29942 18.3355
O 3.26995 7.92093 15.8918
O 1.44402 4.83006 16.9426
O -2.85445 6.38496 13.146
Si -2.67099 7.99359 12.8863
Si -2.27511 5.1402 14.0616
O 0.808452 6.82248 15.8888
Si 0.505837 8.36076 12.9744
Si 0.505895 5.25029 15.3695
O 1.14983 8.83846 14.4432
O -1.13374 8.60811 12.9324
O 1.17952 8.80632 11.5037
O -0.480376 5.3536 16.8392
O -0.750617 5.88432 14.4016
O 1.66979 4.71463 14.3195
O -2.7361 5.82 15.6661
Si -3.63956 7.26331 15.8432
Si -2.16465 4.73625 16.9553
O -3.30385 8.07785 17.2629
O -3.3674 8.11588 14.4227
O -1.3824 4.89723 18.5609
O -1.30686 4.24714 15.399
O -5.45249 4.03233 18.9917
Si -6.30164 5.54442 15.9201
Si -4.39231 2.9907 18.3355
O -5.22463 6.79231 15.8918
O -3.46075 3.66559 16.9426
O -6.95651 0.720386 13.146
Si -8.25791 1.68358 12.8863
Si -5.58885 0.59973 14.0616
O -5.50402 4.11132 15.8887
Si -6.98751 4.61838 12.9744
Si -4.29372 3.06322 15.3695
O -7.07923 5.41494 14.4432
O -8.0215 3.32213 12.9324
O -7.03655 5.42457 11.5037
O -4.8763 2.26073 16.8392
O -5.47105 2.29204 14.4016
O -3.24791 3.8034 14.3195
O -6.40807 0.540401 15.6661
Si -8.10975 0.479654 15.8432
Si -5.18378 0.493421 16.9553
O -8.6473 1.17765 17.2629
O -8.71202 1.14162 14.4227
O -4.93208 1.25136 18.5609
O -4.33131 0.991747 15.399
O -6.21823 -2.7059 18.9917
Si -7.95226 -2.68521 15.9201
Si -4.78605 -2.30861 18.3355
O -8.49445 -1.12854 15.8918
O -4.90467 -1.16438 16.9426
O -4.10219 -5.66457 13.146
Si -5.58705 -6.30998 12.8863
Si -3.31388 -4.54046 14.0616
O -6.31235 -2.71088 15.8889
Si -7.49328 -3.74224 12.9745
Si -4.79952 -2.18695 15.3695
O -8.22894 -3.42339 14.4432
O -6.88779 -5.28587 12.9324
O -8.21597 -3.38158 11.5037
O -4.39591 -3.09275 16.8392
O -4.72047 -3.59216 14.4016
O -4.91759 -0.911157 14.3195
O -3.67211 -5.27959 15.6661
Si -4.47034 -6.78366 15.8432
Si -3.01926 -4.24283 16.9553
O -5.34361 -6.90018 17.2629
O -5.34477 -6.97424 14.4227
O -3.54974 -3.64585 18.5609
O -3.02448 -3.25542 15.3989
O -0.765813 -6.73837 18.9917
Si -1.65075 -8.22977 15.9201
Si -0.393795 -5.29942 18.3355
O -3.26995 -7.92093 15.8918
O -1.44402 -4.83006 16.9426
O 2.85445 -6.38496 13.146
Si 2.67099 -7.99359 12.8863
Si 2.27511 -5.1402 14.0616
O -0.808452 -6.82248 15.8888
Si -0.505837 -8.36076 12.9744
Si -0.505895 -5.25029 15.3695
O -1.14983 -8.83846 14.4432
O 1.13374 -8.60811 12.9324
O -1.17952 -8.80632 11.5037
O 0.480376 -5.3536 16.8392
O 0.750617 -5.88432 14.4016
O -1.66979 -4.71463 14.3195
O 2.7361 -5.82 15.6661
Si 3.63956 -7.26331 15.8432
Si 2.16465 -4.73625 16.9553
O 3.30385 -8.07785 17.2629
O 3.3674 -8.11588 14.4227
O 1.3824 -4.89723 18.5609
O 1.30686 -4.24714 15.399
O 5.45249 -4.03233 18.9917
Si 6.30164 -5.54442 15.9201
Si 4.39231 -2.9907 18.3355
O 5.22463 -6.79231 15.8918
O 3.46075 -3.66559 16.9426
O 6.95651 -0.720386 13.146
Si 8.25791 -1.68358 12.8863
Si 5.58885 -0.59973 14.0616
O 5.50402 -4.11132 15.8887
Si 6.98751 -4.61838 12.9744
Si 4.29372 -3.06322 15.3695
O 7.07923 -5.41494 14.4432
O 8.0215 -3.32213 12.9324
O 7.03655 -5.42457 11.5037
O 4.8763 -2.26073 16.8392
O 5.47105 -2.29204 14.4016
O 3.24791 -3.8034 14.3195
O 6.40807 -0.540401 15.6661
Si 8.10975 -0.479654 15.8432
Si 5.18378 -0.493421 16.9553
O 8.6473 -1.17765 17.2629
O 8.71202 -1.14162 14.4227
O 4.93208 -1.25136 18.5609
O 4.33131 -0.991747 15.399
O 6.21823 2.7059 24.9133
Si 7.95226 2.68521 21.8417
Si 4.78605 2.30861 24.2571
O 8.49445 1.12854 21.8134
O 4.90467 1.16438 22.8642
O 4.10219 5.66457 19.0676
Si 5.58705 6.30998 18.8079
Si 3.31388 4.54046 19.9833
O 6.31235 2.71088 21.8106
Si 7.49328 3.74224 18.8961
Si 4.79952 2.18695 21.2911
O 8.22894 3.42339 20.3649
O 6.88779 5.28587 18.854
O 8.21597 3.38158 17.4254
O 4.39591 3.09275 22.7609
O 4.72047 3.59216 20.3232
O 4.91759 0.911157 20.2411
O 3.67211 5.27959 21.5877
Si 4.47034 6.78366 21.7648
Si 3.01926 4.24283 22.8769
O 5.34361 6.90018 23.1846
O 5.34477 6.97424 20.3443
O 3.54974 3.64585 24.4825
O 3.02448 3.25542 21.3206
O 0.765813 6.73837 24.9133
Si 1.65075 8.22977 21.8417
Si 0.393795 5.29942 24.2571
O 3.26995 7.92093 21.8134
O 1.44402 4.83006 22.8642
O -2.85445 6.38496 19.0676
Si -2.67099 7.99359 18.8079
Si -2.27511 5.1402 19.9833
O 0.808452 6.82248 21.8104
Si 0.505837 8.36076 18.896
Si 0.505895 5.25029 21.2911
O 1.14983 8.83846 20.3648
O -1.13374 8.60811 18.854
O 1.17952 8.80632 17.4253
O -0.480376 5.3536 22.7609
O -0.750617 5.88432 20.3232
O 1.66979 4.71463 20.2411
O -2.7361 5.82 21.5877
Si -3.63956 7.26331 21.7648
Si -2.16465 4.73625 22.8769
O -3.30385 8.07785 23.1846
O -3.3674 8.11588 20.3443
O -1.3824 4.89723 24.4825
O -1.30686 4.24714 21.3206
O -5.45249 4.03233 24.9133
Si -6.30164 5.54442 21.8417
Si -4.39231 2.9907 24.2571
O -5.22463 6.79231 21.8134
O -3.46075 3.66559 22.8642
O -6.95651 0.720386 19.0676
Si -8.25791 1.68358 18.8079
Si -5.58885 0.59973 19.9833
O -5.50402 4.11132 21.8104
Si -6.98751 4.61838 18.896
Si -4.29372 3.06322 21.2911
O -7.07923 5.41494 20.3648
O -8.0215 3.32213 18.854
O -7.03655 5.42457 17.4253
O -4.8763 2.26073 22.7609
O -5.47105 2.29204 20.3232
O -3.24791 3.8034 20.2411
O -6.40807 0.540401 21.5877
Si -8.10975 0.479654 21.7648
Si -5.18378 0.493421 22.8769
O -8.6473 1.17765 23.1846
O -8.71202 1.14162 20.3443
O -4.93208 1.25136 24.4825
O -4.33131 0.991747 21.3206
O -6.21823 -2.7059 24.9133
Si -7.95226 -2.68521 21.8417
Si -4.78605 -2.30861 24.2571
O -8.49445 -1.12854 21.8134
O -4.90467 -1.16438 22.8642
O -4.10219 -5.66457 19.0676
Si -5.58705 -6.30998 18.8079
Si -3.31388 -4.54046 19.9833
O -6.31235 -2.71088 21.8106
Si -7.49328 -3.74224 18.8961
Si -4.79952 -2.18695 21.2911
O -8.22894 -3.42339 20.3649
O -6.88779 -5.28587 18.854
O -8.21597 -3.38158 17.4254
O -4.39591 -3.09275 22.7609
O -4.72047 -3.59216 20.3232
O -4.91759 -0.911157 20.2411
O -3.67211 -5.27959 21.5877
Si -4.47034 -6.78366 21.7648
Si -3.01926 -4.24283 22.8769
O -5.34361 -6.90018 23.1846
O -5.34477 -6.97424 20.3443
O -3.54974 -3.64585 24.4825
O -3.02448 -3.25542 21.3206
O -0.765813 -6.73837 24.9133
Si -1.65075 -8.22977 21.8417
Si -0.393795 -5.29942 24.2571
O -3.26995 -7.92093 21.8134
O -1.44402 -4.83006 22.8642
O 2.85445 -6.38496 19.0676
Si 2.67099 -7.99359 18.8079
Si 2.27511 -5.1402 19.9833
O -0.808452 -6.82248 21.8104
Si -0.505837 -8.36076 18.896
Si -0.505895 -5.25029 21.2911
O -1.14983 -8.83846 20.3648
O 1.13374 -8.60811 18.854
O -1.17952 -8.80632 17.4253
O 0.480376 -5.3536 22.7609
O 0.750617 -5.88432 20.3232
O -1.66979 -4.71463 20.2411
O 2.7361 -5.82 21.5877
Si 3.63956 -7.26331 21.7648
Si 2.16465 -4.73625 22.8769
O 3.30385 -8.07785 23.1846
O 3.3674 -8.11588 20.3443
O 1.3824 -4.89723 24.4825
O 1.30686 -4.24714 21.3206
O 5.45249 -4.03233 24.9133
Si 6.30164 -5.54442 21.8417
Si 4.39231 -2.9907 24.2571
O 5.22463 -6.79231 21.8134
O 3.46075 -3.66559 22.8642
O 6.95651 -0.720386 19.0676
Si 8.25791 -1.68358 18.8079
Si 5.58885 -0.59973 19.9833
O 5.50402 -4.11132 21.8104
Si 6.98751 -4.61838 18.896
Si 4.29372 -3.06322 21.2911
O 7.07923 -5.41494 20.3648
O 8.0215 -3.32213 18.854
O 7.03655 -5.42457 17.4253
O 4.8763 -2.26073 22.7609
O 5.47105 -2.29204 20.3232
O 3.24791 -3.8034 20.2411
O 6.40807 -0.540401 21.5877
Si 8.10975 -0.479654 21.7648
Si 5.18378 -0.493421 22.8769
O 8.6473 -1.17765 23.1846
O 8.71202 -1.14162 20.3443
O 4.93208 -1.25136 24.4825
O 4.33131 -0.991747 21.3206
O 6.21823 2.7059 30.8349
Si 7.95226 2.68521 27.7633
Si 4.78605 2.30861 30.1787
O 8.49445 1.12854 27.735
O 4.90467 1.16438 28.7858
O 4.10219 5.66457 24.9892
Si 5.58705 6.30998 24.7296
Si 3.31388 4.54046 25.9049
O 6.31235 2.71088 27.7322
Si 7.49328 3.74224 24.8177
Si 4.79952 2.18695 27.2128
O 8.22894 3.42339 26.2865
O 6.88779 5.28587 24.7756
O 8.21597 3.38158 23.347
O 4.39591 3.09275 28.6825
O 4.72047 3.59216 26.2448
O 4.91759 0.911157 26.1627
O 3.67211 5.27959 27.5093
Si 4.47034 6.78366 27.6864
Si 3.01926 4.24283 28.7986
O 5.34361 6.90018 29.1062
O 5.34477 6.97424 26.2659
O 3.54974 3.64585 30.4042
O 3.02448 3.25542 27.2422
O 0.765813 6.73837 30.8349
Si 1.65075 8.22977 27.7633
Si 0.393795 5.29942 30.1787
O 3.26995 7.92093 27.735
O 1.44402 4.83006 28.7858
O -2.85445 6.38496 24.9892
Si -2.67099 7.99359 24.7296
Si -2.27511 5.1402 25.9049
O 0.808452 6.82248 27.732
Si 0.505837 8.36076 24.8177
Si 0.505895 5.25029 27.2128
O 1.14983 8.83846 26.2864
O -1.13374 8.60811 24.7756
O 1.17952 8.80632 23.3469
O -0.480376 5.3536 28.6825
O -0.750617 5.88432 26.2448
O 1.66979 4.71463 26.1627
O -2.7361 5.82 27.5093
Si -3.63956 7.26331 27.6864
Si -2.16465 4.73625 28.7986
O -3.30385 8.07785 29.1062
O -3.3674 8.11588 26.2659
O -1.3824 4.89723 30.4042
O -1.30686 4.24714 27.2422
O -5.45249 4.03233 30.8349
Si -6.30164 5.54442 27.7633
Si -4.39231 2.9907 30.1787
O -5.22463 6.79231 27.735
O -3.46075 3.66559 28.7858
O -6.95651 0.720386 24.9892
Si -8.25791 1.68358 24.7296
Si -5.58885 0.59973 25.9049
O -5.50402 4.11132 27.732
Si -6.98751 4.61838 24.8177
Si -4.29372 3.06322 27.2128
O -7.07923 5.41494 26.2864
O -8.0215 3.32213 24.7756
O -7.03655 5.42457 23.3469
O -4.8763 2.26073 28.6825
O -5.47105 2.29204 26.2448
O -3.24791 3.8034 26.1627
O -6.40807 0.540401 27.5093
Si -8.10975 0.479654 27.6864
Si -5.18378 0.493421 28.7986
O -8.6473 1.17765 29.1062
O -8.71202 1.14162 26.2659
O -4.93208 1.25136 30.4042
O -4.33131 0.991747 27.2422
O -6.21823 -2.7059 30.8349
Si -7.95226 -2.68521 27.7633
Si -4.78605 -2.30861 30.1787
O -8.49445 -1.12854 27.735
O -4.90467 -1.16438 28.7858
O -4.10219 -5.66457 24.9892
Si -5.58705 -6.30998 24.7296
Si -3.31388 -4.54046 25.9049
O -6.31235 -2.71088 27.7322
Si -7.49328 -3.74224 24.8177
Si -4.79952 -2.18695 27.2128
O -8.22894 -3.42339 26.2865
O -6.88779 -5.28587 24.7756
O -8.21597 -3.38158 23.347
O -4.39591 -3.09275 28.6825
O -4.72047 -3.59216 26.2448
O -4.91759 -0.911157 26.1627
O -3.67211 -5.27959 27.5093
Si -4.47034 -6.78366 27.6864
Si -3.01926 -4.24283 28.7986
O -5.34361 -6.90018 29.1062
O -5.34477 -6.97424 26.2659
O -3.54974 -3.64585 30.4042
O -3.02448 -3.25542 27.2422
O -0.765813 -6.73837 30.8349
Si -1.65075 -8.22977 27.7633
Si -0.393795 -5.29942 30.1787
O -3.26995 -7.92093 27.735
O -1.44402 -4.83006 28.7858
O 2.85445 -6.38496 24.9892
Si 2.67099 -7.99359 24.7296
Si 2.27511 -5.1402 25.9049
O -0.808452 -6.82248 27.732
Si -0.505837 -8.36076 24.8177
Si -0.505895 -5.25029 27.2128
O -1.14983 -8.83846 26.2864
O 1.13374 -8.60811 24.7756
O -1.17952 -8.80632 23.3469
O 0.480376 -5.3536 28.6825
O 0.750617 -5.88432 26.2448
O -1.66979 -4.71463 26.1627
O 2.7361 -5.82 27.5093
Si 3.63956 -7.26331 27.6864
Si 2.16465 -4.73625 28.7986
O 3.30385 -8.07785 29.1062
O 3.3674 -8.11588 26.2659
O 1.3824 -4.89723 30.4042
O 1.30686 -4.24714 27.2422
O 5.45249 -4.03233 30.8349
Si 6.30164 -5.54442 27.7633
Si 4.39231 -2.9907 30.1787
O 5.22463 -6.79231 27.735
O 3.46075 -3.66559 28.7858
O 6.95651 -0.720386 24.9892
Si 8.25791 -1.68358 24.7296
Si 5.58885 -0.59973 25.9049
O 5.50402 -4.11132 27.732
Si 6.98751 -4.61838 24.8177
Si 4.29372 -3.06322 27.2128
O 7.07923 -5.41494 26.2864
O 8.0215 -3.32213 24.7756
O 7.03655 -5.42457 23.3469
O 4.8763 -2.26073 28.6825
O 5.47105 -2.29204 26.2448
O 3.24791 -3.8034 26.1627
O 6.40807 -0.540401 27.5093
Si 8.10975 -0.479654 27.6864
Si 5.18378 -0.493421 28.7986
O 8.6473 -1.17765 29.1062
O 8.71202 -1.14162 26.2659
O 4.93208 -1.25136 30.4042
O 4.33131 -0.991747 27.2422
O 6.21823 2.7059 36.7565
Si 7.95226 2.68521 33.685
Si 4.78605 2.30861 36.1003
O 8.49445 1.12854 33.6567
O 4.90467 1.16438 34.7074
O 4.10219 5.66457 30.9109
Si 5.58705 6.30998 30.6512
Si 3.31388 4.54046 31.8265
O 6.31235 2.71088 33.6538
Si 7.49328 3.74224 30.7393
Si 4.79952 2.18695 33.1344
O 8.22894 3.42339 32.2081
O 6.88779 5.28587 30.6972
O 8.21597 3.38158 29.2686
O 4.39591 3.09275 34.6041
O 4.72047 3.59216 32.1665
O 4.91759 0.911157 32.0843
O 3.67211 5.27959 33.4309
Si 4.47034 6.78366 33.6081
Si 3.01926 4.24283 34.7202
O 5.34361 6.90018 35.0278
O 5.34477 6.97424 32.1875
O 3.54974 3.64585 36.3258
O 3.02448 3.25542 33.1638
O 0.765813 6.73837 36.7565
Si 1.65075 8.22977 33.6849
Si 0.393795 5.29942 36.1003
O 3.26995 7.92093 33.6567
O 1.44402 4.83006 34.7074
O -2.85445 6.38496 30.9108
Si -2.67099 7.99359 30.6512
Si -2.27511 5.1402 31.8265
O 0.808452 6.82248 33.6536
Si 0.505837 8.36076 30.7393
Si 0.505895 5.25029 33.1344
O 1.14983 8.83846 32.208
O -1.13374 8.60811 30.6972
O 1.17952 8.80632 29.2686
O -0.480376 5.3536 34.6041
O -0.750617 5.88432 32.1665
O 1.66979 4.71463 32.0843
O -2.7361 5.82 33.4309
Si -3.63956 7.26331 33.6081
Si -2.16465 4.73625 34.7202
O -3.30385 8.07785 35.0278
O -3.3674 8.11588 32.1875
O -1.3824 4.89723 36.3258
O -1.30686 4.24714 33.1638
O -5.45249 4.03233 36.7565
Si -6.30164 5.54442 33.6849
Si -4.39231 2.9907 36.1003
O -5.22463 6.79231 33.6566
O -3.46075 3.66559 34.7074
O -6.95651 0.720386 30.9108
Si -8.25791 1.68358 30.6512
Si -5.58885 0.59973 31.8265
O -5.50402 4.11132 33.6536
Si -6.98751 4.61838 30.7393
Si -4.29372 3.06322 33.1344
O -7.07923 5.41494 32.208
O -8.0215 3.32213 30.6972
O -7.03655 5.42457 29.2685
O -4.8763 2.26073 34.6041
O -5.47105 2.29204 32.1665
O -3.24791 3.8034 32.0843
O -6.40807 0.540401 33.4309
Si -8.10975 0.479654 33.6081
Si -5.18378 0.493421 34.7202
O -8.6473 1.17765 35.0278
O -8.71202 1.14162 32.1875
O -4.93208 1.25136 36.3258
O -4.33131 0.991747 33.1638
O -6.21823 -2.7059 36.7565
Si -7.95226 -2.68521 33.685
Si -4.78605 -2.30861 36.1003
O -8.49445 -1.12854 33.6567
O -4.90467 -1.16438 34.7074
O -4.10219 -5.66457 30.9109
Si -5.58705 -6.30998 30.6512
Si -3.31388 -4.54046 31.8265
O -6.31235 -2.71088 33.6538
Si -7.49328 -3.74224 30.7393
Si -4.79952 -2.18695 33.1344
O -8.22894 -3.42339 32.2081
O -6.88779 -5.28587 30.6972
O -8.21597 -3.38158 29.2686
O -4.39591 -3.09275 34.6041
O -4.72047 -3.59216 32.1665
O -4.91759 -0.911157 32.0843
O -3.67211 -5.27959 33.4309
Si -4.47034 -6.78366 33.6081
Si -3.01926 -4.24283 34.7202
O -5.34361 -6.90018 35.0278
O -5.34477 -6.97424 32.1875
O -3.54974 -3.64585 36.3258
O -3.02448 -3.25542 33.1638
O -0.765813 -6.73837 36.7565
Si -1.65075 -8.22977 33.6849
Si -0.393795 -5.29942 36.1003
O -3.26995 -7.92093 33.6567
O -1.44402 -4.83006 34.7074
O 2.85445 -6.38496 30.9108
Si 2.67099 -7.99359 30.6512
Si 2.27511 -5.1402 31.8265
O -0.808452 -6.82248 33.6536
Si -0.505837 -8.36076 30.7393
Si -0.505895 -5.25029 33.1344
O -1.14983 -8.83846 32.208
O 1.13374 -8.60811 30.6972
O -1.17952 -8.80632 29.2686
O 0.480376 -5.3536 34.6041
O 0.750617 -5.88432 32.1665
O -1.66979 -4.71463 32.0843
O 2.7361 -5.82 33.4309
Si 3.63956 -7.26331 33.6081
Si 2.16465 -4.73625 34.7202
O 3.30385 -8.07785 35.0278
O 3.3674 -8.11588 32.1875
O 1.3824 -4.89723 36.3258
O 1.30686 -4.24714 33.1638
O 5.45249 -4.03233 36.7565
Si 6.30164 -5.54442 33.6849
Si 4.39231 -2.9907 36.1003
O 5.22463 -6.79231 33.6566
O 3.46075 -3.66559 34.7074
O 6.95651 -0.720386 30.9108
Si 8.25791 -1.68358 30.6512
Si 5.58885 -0.59973 31.8265
O 5.50402 -4.11132 33.6536
Si 6.98751 -4.61838 30.7393
Si 4.29372 -3.06322 33.1344
O 7.07923 -5.41494 32.208
O 8.0215 -3.32213 30.6972
O 7.03655 -5.42457 29.2685
O 4.8763 -2.26073 34.6041
O 5.47105 -2.29204 32.1665
O 3.24791 -3.8034 32.0843
O 6.40807 -0.540401 33.4309
Si 8.10975 -0.479654 33.6081
Si 5.18378 -0.493421 34.7202
O 8.6473 -1.17765 35.0278
O 8.71202 -1.14162 32.1875
O 4.93208 -1.25136 36.3258
O 4.33131 -0.991747 33.1638
O 6.21823 2.7059 42.6782
Si 7.95226 2.68521 39.6066
Si 4.78605 2.30861 42.022
O 8.49445 1.12854 39.5783
O 4.90467 1.16438 40.6291
O 4.10219 5.66457 36.8325
Si 5.58705 6.30998 36.5728
Si 3.31388 4.54046 37.7481
O 6.31235 2.71088 39.5754
Si 7.49328 3.74224 36.6609
Si 4.79952 2.18695 39.056
O 8.22894 3.42339 38.1297
O 6.88779 5.28587 36.6189
O 8.21597 3.38158 35.1902
O 4.39591 3.09275 40.5257
O 4.72047 3.59216 38.0881
O 4.91759 0.911157 38.006
O 3.67211 5.27959 39.3525
Si 4.47034 6.78366 39.5297
Si 3.01926 4.24283 40.6418
O 5.34361 6.90018 40.9494
O 5.34477 6.97424 38.1092
O 3.54974 3.64585 42.2474
O 3.02448 3.25542 39.0854
O 0.765813 6.73837 42.6781
Si 1.65075 8.22977 39.6065
Si 0.393795 5.29942 42.022
O 3.26995 7.92093 39.5783
O 1.44402 4.83006 40.6291
O -2.85445 6.38496 36.8325
Si -2.67099 7.99359 36.5728
Si -2.27511 5.1402 37.7481
O 0.808452 6.82248 39.5752
Si 0.505837 8.36076 36.6609
Si 0.505895 5.25029 39.056
O 1.14983 8.83846 38.1297
O -1.13374 8.60811 36.6189
O 1.17952 8.80632 35.1902
O -0.480376 5.3536 40.5257
O -0.750617 5.88432 38.0881
O 1.66979 4.71463 38.006
O -2.7361 5.82 39.3525
Si -3.63956 7.26331 39.5297
Si -2.16465 4.73625 40.6418
O -3.30385 8.07785 40.9494
O -3.3674 8.11588 38.1092
O -1.3824 4.89723 42.2474
O -1.30686 4.24714 39.0854
O -5.45249 4.03233 42.6781
Si -6.30164 5.54442 39.6065
Si -4.39231 2.9907 42.022
O -5.22463 6.79231 39.5783
O -3.46075 3.66559 40.6291
O -6.95651 0.720386 36.8325
Si -8.25791 1.68358 36.5728
Si -5.58885 0.59973 37.7481
O -5.50402 4.11132 39.5752
Si -6.98751 4.61838 36.6609
Si -4.29372 3.06322 39.056
O -7.07923 5.41494 38.1296
O -8.0215 3.32213 36.6189
O -7.03655 5.42457 35.1902
O -4.8763 2.26073 40.5257
O -5.47105 2.29204 38.0881
O -3.24791 3.8034 38.006
O -6.40807 0.540401 39.3525
Si -8.10975 0.479654 39.5297
Si -5.18378 0.493421 40.6418
O -8.6473 1.17765 40.9494
O -8.71202 1.14162 38.1092
O -4.93208 1.25136 42.2474
O -4.33131 0.991747 39.0854
O -6.21823 -2.7059 42.6782
Si -7.95226 -2.68521 39.6066
Si -4.78605 -2.30861 42.022
O -8.49445 -1.12854 39.5783
O -4.90467 -1.16438 40.6291
O -4.10219 -5.66457 36.8325
Si -5.58705 -6.30998 36.5728
Si -3.31388 -4.54046 37.7481
O -6.31235 -2.71088 39.5754
Si -7.49328 -3.74224 36.6609
Si -4.79952 -2.18695 39.056
O -8.22894 -3.42339 38.1297
O -6.88779 -5.28587 36.6189
O -8.21597 -3.38158 35.1902
O -4.39591 -3.09275 40.5257
O -4.72047 -3.59216 38.0881
O -4.91759 -0.911157 38.006
O -3.67211 -5.27959 39.3525
Si -4.47034 -6.78366 39.5297
Si -3.01926 -4.24283 40.6418
O -5.34361 -6.90018 40.9494
O -5.34477 -6.97424 38.1092
O -3.54974 -3.64585 42.2474
O -3.02448 -3.25542 39.0854
O -0.765813 -6.73837 42.6781
Si -1.65075 -8.22977 39.6065
Si -0.393795 -5.29942 42.022
O -3.26995 -7.92093 39.5783
O -1.44402 -4.83006 40.6291
O 2.85445 -6.38496 36.8325
Si 2.67099 -7.99359 36.5728
Si 2.27511 -5.1402 37.7481
O -0.808452 -6.82248 39.5752
Si -0.505837 -8.36076 36.6609
Si -0.505895 -5.25029 39.056
O -1.14983 -8.83846 38.1297
O 1.13374 -8.60811 36.6189
O -1.17952 -8.80632 35.1902
O 0.480376 -5.3536 40.5257
O 0.750617 -5.88432 38.0881
O -1.66979 -4.71463 38.006
O 2.7361 -5.82 39.3525
Si 3.63956 -7.26331 39.5297
Si 2.16465 -4.73625 40.6418
O 3.30385 -8.07785 40.9494
O 3.3674 -8.11588 38.1092
O 1.3824 -4.89723 42.2474
O 1.30686 -4.24714 39.0854
O 5.45249 -4.03233 42.6781
Si 6.30164 -5.54442 39.6065
Si 4.39231 -2.9907 42.022
O 5.22463 -6.79231 39.5783
O 3.46075 -3.66559 40.6291
O 6.95651 -0.720386 36.8325
Si 8.25791 -1.68358 36.5728
Si 5.58885 -0.59973 37.7481
O 5.50402 -4.11132 39.5752
Si 6.98751 -4.61838 36.6609
Si 4.29372 -3.06322 39.056
O 7.07923 -5.41494 38.1296
O 8.0215 -3.32213 36.6189
O 7.03655 -5.42457 35.1902
O 4.8763 -2.26073 40.5257
O 5.47105 -2.29204 38.0881
O 3.24791 -3.8034 38.006
O 6.40807 -0.540401 39.3525
Si 8.10975 -0.479654 39.5297
Si 5.18378 -0.493421 40.6418
O 8.6473 -1.17765 40.9494
O 8.71202 -1.14162 38.1092
O 4.93208 -1.25136 42.2474
O 4.33131 -0.991747 39.0854
O 6.21823 2.7059 48.5998
Si 7.95226 2.68521 45.5282
Si 4.78605 2.30861 47.9436
O 8.49445 1.12854 45.4999
O 4.90467 1.16438 46.5507
O 4.10219 5.66457 42.7541
Si 5.58705 6.30998 42.4944
Si 3.31388 4.54046 43.6697
O 6.31235 2.71088 45.497
Si 7.49328 3.74224 42.5825
Si 4.79952 2.18695 44.9776
O 8.22894 3.42339 44.0513
O 6.88779 5.28587 42.5405
O 8.21597 3.38158 41.1118
O 4.39591 3.09275 46.4473
O 4.72047 3.59216 44.0097
O 4.91759 0.911157 43.9276
O 3.67211 5.27959 45.2742
Si 4.47034 6.78366 45.4513
Si 3.01926 4.24283 46.5634
O 5.34361 6.90018 46.871
O 5.34477 6.97424 44.0308
O 3.54974 3.64585 48.169
O 3.02448 3.25542 45.007
O 0.765813 6.73837 48.5998
Si 1.65075 8.22977 45.5282
Si 0.393795 5.29942 47.9436
O 3.26995 7.92093 45.4999
O 1.44402 4.83006 46.5507
O -2.85445 6.38496 42.7541
Si -2.67099 7.99359 42.4944
Si -2.27511 5.1402 43.6697
O 0.808452 6.82248 45.4969
Si 0.505837 8.36076 42.5825
Si 0.505895 5.25029 44.9776
O 1.14983 8.83846 44.0513
O -1.13374 8.60811 42.5405
O 1.17952 8.80632 41.1118
O -0.480376 5.3536 46.4473
O -0.750617 5.88432 44.0097
O 1.66979 4.71463 43.9276
O -2.7361 5.82 45.2742
Si -3.63956 7.26331 45.4513
Si -2.16465 4.73625 46.5634
O -3.30385 8.07785 46.871
O -3.3674 8.11588 44.0308
O -1.3824 4.89723 48.169
O -1.30686 4.24714 45.0071
O -5.45249 4.03233 48.5998
Si -6.30164 5.54442 45.5281
Si -4.39231 2.9907 47.9436
O -5.22463 6.79231 45.4999
O -3.46075 3.66559 46.5507
O -6.95651 0.720386 42.7541
Si -8.25791 1.68358 42.4944
Si -5.58885 0.59973 43.6697
O -5.50402 4.11132 45.4968
Si -6.98751 4.61838 42.5825
Si -4.29372 3.06322 44.9776
O -7.07923 5.41494 44.0513
O -8.0215 3.32213 42.5405
O -7.03655 5.42457 41.1118
O -4.8763 2.26073 46.4473
O -5.47105 2.29204 44.0097
O -3.24791 3.8034 43.9276
O -6.40807 0.540401 45.2742
Si -8.10975 0.479654 45.4513
Si -5.18378 0.493421 46.5634
O -8.6473 1.17765 46.871
O -8.71202 1.14162 44.0308
O -4.93208 1.25136 48.169
O -4.33131 0.991747 45.007
O -6.21823 -2.7059 48.5998
Si -7.95226 -2.68521 45.5282
Si -4.78605 -2.30861 47.9436
O -8.49445 -1.12854 45.4999
O -4.90467 -1.16438 46.5507
O -4.10219 -5.66457 42.7541
Si -5.58705 -6.30998 42.4944
Si -3.31388 -4.54046 43.6697
O -6.31235 -2.71088 45.497
Si -7.49328 -3.74224 42.5825
Si -4.79952 -2.18695 44.9776
O -8.22894 -3.42339 44.0513
O -6.88779 -5.28587 42.5405
O -8.21597 -3.38158 41.1118
O -4.39591 -3.09275 46.4473
O -4.72047 -3.59216 44.0097
O -4.91759 -0.911157 43.9276
O -3.67211 -5.27959 45.2742
Si -4.47034 -6.78366 45.4513
Si -3.01926 -4.24283 46.5634
O -5.34361 -6.90018 46.871
O -5.34477 -6.97424 44.0308
O -3.54974 -3.64585 48.169
O -3.02448 -3.25542 45.007
O -0.765813 -6.73837 48.5998
Si -1.65075 -8.22977 45.5282
Si -0.393795 -5.29942 47.9436
O -3.26995 -7.92093 45.4999
O -1.44402 -4.83006 46.5507
O 2.85445 -6.38496 42.7541
Si 2.67099 -7.99359 42.4944
Si 2.27511 -5.1402 43.6697
O -0.808452 -6.82248 45.4969
Si -0.505837 -8.36076 42.5825
Si -0.505895 -5.25029 44.9776
O -1.14983 -8.83846 44.0513
O 1.13374 -8.60811 42.5405
O -1.17952 -8.80632 41.1118
O 0.480376 -5.3536 46.4473
O 0.750617 -5.88432 44.0097
O -1.66979 -4.71463 43.9276
O 2.7361 -5.82 45.2742
Si 3.63956 -7.26331 45.4513
Si 2.16465 -4.73625 46.5634
O 3.30385 -8.07785 46.871
O 3.3674 -8.11588 44.0308
O 1.3824 -4.89723 48.169
O 1.30686 -4.24714 45.0071
O 5.45249 -4.03233 48.5998
Si 6.30164 -5.54442 45.5281
Si 4.39231 -2.9907 47.9436
O 5.22463 -6.79231 45.4999
O 3.46075 -3.66559 46.5507
O 6.95651 -0.720386 42.7541
Si 8.25791 -1.68358 42.4944
Si 5.58885 -0.59973 43.6697
O 5.50402 -4.11132 45.4968
Si 6.98751 -4.61838 42.5825
Si 4.29372 -3.06322 44.9776
O 7.07923 -5.41494 44.0513
O 8.0215 -3.32213 42.5405
O 7.03655 -5.42457 41.1118
O 4.8763 -2.26073 46.4473
O 5.47105 -2.29204 44.0097
O 3.24791 -3.8034 43.9276
O 6.40807 -0.540401 45.2742
Si 8.10975 -0.479654 45.4513
Si 5.18378 -0.493421 46.5634
O 8.6473 -1.17765 46.871
O 8.71202 -1.14162 44.0308
O 4.93208 -1.25136 48.169
O 4.33131 -0.991747 45.007
O 6.21823 2.7059 54.5214
Si 7.95226 2.68521 51.4498
Si 4.78605 2.30861 53.8652
O 8.49445 1.12854 51.4215
O 4.90467 1.16438 52.4723
O 4.10219 5.66457 48.6757
Si 5.58705 6.30998 48.416
Si 3.31388 4.54046 49.5913
O 6.31235 2.71088 51.4186
Si 7.49328 3.74224 48.5042
Si 4.79952 2.18695 50.8992
O 8.22894 3.42339 49.9729
O 6.88779 5.28587 48.4621
O 8.21597 3.38158 47.0334
O 4.39591 3.09275 52.369
O 4.72047 3.59216 49.9313
O 4.91759 0.911157 49.8492
O 3.67211 5.27959 51.1958
Si 4.47034 6.78366 51.3729
Si 3.01926 4.24283 52.485
O 5.34361 6.90018 52.7927
O 5.34477 6.97424 49.9524
O 3.54974 3.64585 54.0906
O 3.02448 3.25542 50.9287
O 0.765813 6.73837 54.5214
Si 1.65075 8.22977 51.4498
Si 0.393795 5.29942 53.8652
O 3.26995 7.92093 51.4215
O 1.44402 4.83006 52.4723
O -2.85445 6.38496 48.6757
Si -2.67099 7.99359 48.416
Si -2.27511 5.1402 49.5913
O 0.808452 6.82248 51.4185
Si 0.505837 8.36076 48.5041
Si 0.505895 5.25029 50.8992
O 1.14983 8.83846 49.9729
O -1.13374 8.60811 48.4621
O 1.17952 8.80632 47.0334
O -0.480376 5.3536 52.369
O -0.750617 5.88432 49.9313
O 1.66979 4.71463 49.8492
O -2.7361 5.82 51.1958
Si -3.63956 7.26331 51.3729
Si -2.16465 4.73625 52.485
O -3.30385 8.07785 52.7927
O -3.3674 8.11588 49.9524
O -1.3824 4.89723 54.0906
O -1.30686 4.24714 50.9287
O -5.45249 4.03233 54.5214
Si -6.30164 5.54442 51.4498
Si -4.39231 2.9907 53.8652
O -5.22463 6.79231 51.4215
O -3.46075 3.66559 52.4723
O -6.95651 0.720386 48.6757
Si -8.25791 1.68358 48.416
Si -5.58885 0.59973 49.5913
O -5.50402 4.11132 51.4184
Si -6.98751 4.61838 48.5041
Si -4.29372 3.06322 50.8992
O -7.07923 5.41494 49.9729
O -8.0215 3.32213 48.4621
O -7.03655 5.42457 47.0334
O -4.8763 2.26073 52.369
O -5.47105 2.29204 49.9313
O -3.24791 3.8034 49.8492
O -6.40807 0.540401 51.1958
Si -8.10975 0.479654 51.3729
Si -5.18378 0.493421 52.485
O -8.6473 1.17765 52.7927
O -8.71202 1.14162 49.9524
O -4.93208 1.25136 54.0906
O -4.33131 0.991747 50.9287
O -6.21823 -2.7059 54.5214
Si -7.95226 -2.68521 51.4498
Si -4.78605 -2.30861 53.8652
O -8.49445 -1.12854 51.4215
O -4.90467 -1.16438 52.4723
O -4.10219 -5.66457 48.6757
Si -5.58705 -6.30998 48.416
Si -3.31388 -4.54046 49.5913
O -6.31235 -2.71088 51.4186
Si -7.49328 -3.74224 48.5042
Si -4.79952 -2.18695 50.8992
O -8.22894 -3.42339 49.9729
O -6.88779 -5.28587 48.4621
O -8.21597 -3.38158 47.0334
O -4.39591 -3.09275 52.369
O -4.72047 -3.59216 49.9313
O -4.91759 -0.911157 49.8492
O -3.67211 -5.27959 51.1958
Si -4.47034 -6.78366 51.3729
Si -3.01926 -4.24283 52.485
O -5.34361 -6.90018 52.7927