2592
 Atoms. Timestep: 52362
O 3.62437 -7.16957 0.419038
Si 4.16267 -8.7104 0.231069
Si 2.74115 -5.821 0.113203
O 7.3196 -4.88147 -2.17373
Si 8.39807 -6.0452 -1.8607
Si 6.34797 -3.81596 -1.41156
O 4.9442 -6.75222 -2.80655
Si 5.93995 -7.94483 -2.24171
Si 4.07129 -5.34713 -2.72534
O 5.06356 -8.78966 -1.13799
O 7.38987 -7.34216 -1.71409
O 6.27102 -8.95873 -3.4882
O 2.98556 -5.38058 -1.46644
O 5.03122 -4.10871 -2.31977
O 3.69393 -5.08976 100.846
O 7.43083 -3.5907 0.135923
Si 9.07147 -3.89425 0.282544
Si 6.11423 -3.34794 1.5089
O 9.13528 -4.90453 1.58052
O 9.83649 -2.40882 0.298636
O 9.29057 -5.08889 -0.850571
O 6.26076 -2.52982 3.06029
O 5.79633 -1.96321 0.611922
O 5.45314 -3.84405 0.0249324
O 3.99913 -7.35123 5.92058
Si 4.18961 -8.71416 5.05421
Si 3.2614 -5.88761 5.99213
O 7.06069 -4.35156 2.87888
Si 8.22747 -5.5111 2.80699
Si 6.18711 -3.65935 4.38421
O 4.57956 -6.68025 2.72642
Si 5.86989 -7.71244 2.6763
Si 3.86095 -5.22291 2.95504
O 5.41212 -8.59985 3.98495
O 7.36705 -6.95166 2.68283
O 5.32882 -8.64984 1.41538
O 3.1724 -5.2271 4.47102
O 5.07792 -4.13658 2.96213
O 3.13945 -4.98797 1.49061
O 7.62465 -3.48625 5.55578
Si 9.22598 -3.82552 5.25645
Si 6.79777 -2.99869 7.13197
O 10.0026 -4.38221 6.58394
O 9.8298 -2.34441 4.83588
O 9.09162 -5.03839 4.13791
O 7.72861 -3.24358 8.44142
O 6.31473 -1.47988 6.79955
O 5.678 -3.57426 5.99379
O 8.0214 -0.446046 0.418991
Si 9.62495 -0.750277 0.231028
Si 6.41189 -0.536675 0.113156
O 7.88731 3.89816 -2.17378
Si 9.43435 4.25029 -1.86076
Si 6.47874 3.5894 -1.41159
O 8.31984 0.905616 -2.8066
Si 9.85054 1.1717 -2.24175
Si 6.66655 0.852172 -2.7254
O 10.144 -0.00969727 -1.13803
O 10.0535 2.72871 -1.71414
O 10.8941 0.951485 -3.48824
O 6.15267 -0.104823 -1.46649
O 6.07396 2.30269 -2.31982
O 6.25498 0.654031 100.846
O 6.82511 4.63982 0.135895
Si 7.90828 5.9089 0.282509
Si 5.9566 3.62098 1.50888
O 8.81513 5.45905 1.58047
O 7.00434 7.31412 0.298606
O 9.05242 5.50136 -0.850619
O 5.32135 4.15693 3.06027
O 4.5984 4.03799 0.611941
O 6.05568 2.80041 0.0249022
O 8.36611 -0.212339 5.92054
Si 9.64169 -0.728825 5.05417
Si 6.72971 -0.119439 5.9921
O 7.29899 3.93886 2.87885
Si 8.88656 4.36958 2.80695
Si 6.26274 3.52839 4.38419
O 8.0752 0.625805 2.72638
Si 9.61426 1.2272 2.67626
Si 6.45381 0.732107 2.95501
O 10.1539 0.387066 3.9849
O 9.70395 2.90418 2.6828
O 10.1556 0.289936 1.41534
O 6.11319 0.133706 4.47099
O 6.12146 2.32919 2.9621
O 5.8896 0.22476 1.49057
O 6.83157 4.85991 5.55575
Si 7.92602 6.07709 5.25641
Si 5.99589 4.38759 7.13193
O 8.79644 6.47134 6.5839
O 6.94522 7.34055 4.83585
O 8.90924 5.35431 4.13787
O 6.67341 5.0713 8.44136
O 4.43903 4.72865 6.79953
O 5.9345 3.13004 5.99377
O 4.39699 6.72353 0.418991
Si 5.46221 7.96015 0.231003
Si 3.67073 5.28433 0.113182
O 0.567677 8.77942 -2.17383
Si 1.03626 10.2953 -1.86084
Si 0.130802 7.4052 -1.41161
O 3.37561 7.65776 -2.80661
Si 3.91051 9.11644 -2.2418
Si 2.59525 6.19924 -2.72537
O 5.08036 8.77994 -1.13807
O 2.66357 10.0707 -1.71422
O 4.62302 9.9101 -3.4883
O 3.16711 5.27573 -1.46645
O 1.04277 6.41129 -2.31981
O 2.56107 5.74373 100.846
O -0.60568 8.23041 0.13588
Si -1.16313 9.80302 0.282478
Si -0.157612 6.96885 1.50888
O -0.320117 10.3635 1.58044
O -2.83205 9.72285 0.29859
O -0.238126 10.5901 -0.850676
O -0.939355 6.68669 3.06028
O -1.1979 6.00116 0.611946
O 0.602539 6.64433 0.0249008
O 4.36696 7.13896 5.92054
Si 5.45202 7.9854 5.05415
Si 3.46831 5.76824 5.99211
O 0.238311 8.29035 2.87884
Si 0.659083 9.88058 2.80692
Si 0.0756724 7.18771 4.38419
O 3.49562 7.30607 2.72637
Si 3.74432 8.93962 2.67623
Si 2.59287 5.95505 2.95502
O 4.74173 8.98694 3.98488
O 2.33685 9.85578 2.68278
O 4.82665 8.93978 1.41531
O 2.9408 5.36088 4.47101
O 1.04357 6.46575 2.9621
O 2.75016 5.21274 1.49059
O -0.793068 8.34608 5.55573
Si -1.29992 9.90251 5.25639
Si -0.801913 7.38619 7.13191
O -1.20613 10.8534 6.58388
O -2.88452 9.68488 4.83584
O -0.182376 10.3926 4.13784
O -1.05517 8.31477 8.44136
O -1.87576 6.20848 6.79954
O 0.256484 6.70425 5.99377
O -3.62434 7.16956 0.419001
Si -4.16263 8.71039 0.231
Si -2.74111 5.82099 0.113203
O -7.31952 4.88136 -2.17386
Si -8.39796 6.0451 -1.86084
Si -6.34791 3.81584 -1.41165
O -4.94412 6.75216 -2.8066
Si -5.93988 7.94478 -2.2418
Si -4.07122 5.34707 -2.72535
O -5.06351 8.78962 -1.13807
O -7.3898 7.34208 -1.71421
O -6.27093 8.95867 -3.4883
O -2.98551 5.38052 -1.46643
O -5.03114 4.10863 -2.31982
O -3.69384 5.0897 100.846
O -7.43078 3.59068 0.135851
Si -9.07141 3.89424 0.282464
Si -6.11418 3.34798 1.50884
O -9.13524 4.90454 1.58042
O -9.83644 2.40882 0.298572
O -9.29049 5.08886 -0.850686
O -6.26074 2.52984 3.06023
O -5.79628 1.96321 0.611915
O -5.45309 3.84402 0.0248463
O -3.99914 7.3513 5.92056
Si -4.18961 8.7142 5.05415
Si -3.26145 5.88766 5.99215
O -7.06067 4.35159 2.87881
Si -8.22745 5.51112 2.80691
Si -6.18711 3.65936 4.38416
O -4.57954 6.68027 2.72638
Si -5.86987 7.71246 2.67623
Si -3.86093 5.22295 2.95504
O -5.41211 8.59988 3.98488
O -7.36704 6.95168 2.68276
O -5.3288 8.64984 1.4153
O -3.17243 5.22714 4.47105
O -5.0779 4.13661 2.9621
O -3.13941 4.98798 1.49063
O -7.62466 3.48627 5.55572
Si -9.22599 3.82554 5.25636
Si -6.79781 2.99873 7.13192
O -10.0026 4.38223 6.58386
O -9.82981 2.34442 4.83582
O -9.09162 5.03841 4.13782
O -7.7287 3.24361 8.44133
O -6.31478 1.4799 6.79955
O -5.67802 3.57428 5.99375
O -8.02135 0.446018 0.418945
Si -9.6249 0.750276 0.230981
Si -6.41185 0.536673 0.113152
O -7.88722 -3.8982 -2.17381
Si -9.43427 -4.2503 -1.8608
Si -6.47867 -3.58943 -1.41161
O -8.31975 -0.905624 -2.80661
Si -9.85046 -1.17171 -2.24179
Si -6.66646 -0.852187 -2.72539
O -10.144 0.00968312 -1.13808
O -10.0534 -2.72872 -1.71418
O -10.8941 -0.951498 -3.48829
O -6.15258 0.104803 -1.46648
O -6.07388 -2.30271 -2.31983
O -6.25489 -0.654023 100.846
O -6.82505 -4.63982 0.135891
Si -7.90823 -5.90889 0.282511
Si -5.95656 -3.62095 1.50887
O -8.81509 -5.45903 1.58047
O -7.0043 -7.31411 0.298627
O -9.05236 -5.50135 -0.850634
O -5.32131 -4.15689 3.06027
O -4.59836 -4.03799 0.611945
O -6.05563 -2.80041 0.0248799
O -8.36614 0.212357 5.92053
Si -9.6417 0.728841 5.05413
Si -6.72974 0.119454 5.99211
O -7.29896 -3.93883 2.87884
Si -8.88652 -4.36956 2.80694
Si -6.26271 -3.52836 4.38418
O -8.07518 -0.625782 2.72636
Si -9.61423 -1.22718 2.67622
Si -6.45379 -0.732076 2.95501
O -10.1539 -0.387055 3.98486
O -9.70392 -2.90416 2.68277
O -10.1555 -0.289923 1.4153
O -6.1132 -0.133674 4.47101
O -6.12144 -2.32916 2.9621
O -5.88956 -0.224729 1.49058
O -6.83154 -4.85987 5.55575
Si -7.926 -6.07705 5.25641
Si -5.99587 -4.38754 7.13193
O -8.79642 -6.47129 6.58391
O -6.9452 -7.34052 4.83587
O -8.90921 -5.35428 4.13786
O -6.6734 -5.07122 8.44136
O -4.439 -4.72861 6.79954
O -5.93447 -3.13 5.99376
O -4.39696 -6.72352 0.419019
Si -5.46218 -7.96015 0.231033
Si -3.6707 -5.28434 0.113194
O -0.567672 -8.77948 -2.17376
Si -1.03625 -10.2953 -1.86075
Si -0.130781 -7.40525 -1.41156
O -3.37556 -7.6578 -2.80658
Si -3.91048 -9.11647 -2.24175
Si -2.59521 -6.19928 -2.72535
O -5.08033 -8.77995 -1.13803
O -2.66355 -10.0708 -1.71414
O -4.62299 -9.91014 -3.48825
O -3.16707 -5.27576 -1.46644
O -1.04273 -6.41133 -2.31978
O -2.56102 -5.74377 100.846
O 0.605714 -8.23043 0.135929
Si 1.16316 -9.80303 0.282548
Si 0.157653 -6.96885 1.50891
O 0.32015 -10.3635 1.58051
O 2.83209 -9.72286 0.298664
O 0.238154 -10.5901 -0.85059
O 0.939392 -6.68667 3.06031
O 1.19794 -6.00117 0.611952
O -0.602509 -6.64435 0.0249336
O -4.36693 -7.13892 5.92056
Si -5.452 -7.98537 5.05417
Si -3.46829 -5.76821 5.99213
O -0.238276 -8.29033 2.87888
Si -0.659057 -9.88056 2.80699
Si -0.0756358 -7.18767 4.38422
O -3.49558 -7.30605 2.7264
Si -3.74429 -8.9396 2.67627
Si -2.59283 -5.95503 2.95504
O -4.74171 -8.98691 3.98491
O -2.33683 -9.85576 2.68283
O -4.82662 -8.93977 1.41535
O -2.94077 -5.36085 4.47103
O -1.04353 -6.46573 2.96213
O -2.75012 -5.21273 1.4906
O 0.793074 -8.34605 5.55579
Si 1.29993 -9.90248 5.25647
Si 0.801889 -7.38615 7.13196
O 1.20612 -10.8534 6.58397
O 2.88453 -9.68486 4.83592
O 0.18239 -10.3926 4.13792
O 1.05517 -8.31471 8.44143
O 1.87571 -6.20843 6.79954
O -0.256482 -6.70421 5.99379
O 3.62433 -7.16957 12.103
Si 4.16262 -8.7104 11.9151
Si 2.74111 -5.82101 11.7972
O 7.31956 -4.88147 9.51029
Si 8.39802 -6.0452 9.82332
Si 6.34792 -3.81597 10.2725
O 4.94416 -6.75223 8.87745
Si 5.93991 -7.94483 9.44231
Si 4.07125 -5.34714 8.95866
O 5.06351 -8.78966 10.546
O 7.38983 -7.34216 9.96993
O 6.27098 -8.95874 8.19582
O 2.98551 -5.38059 10.2176
O 5.03117 -4.10872 9.36425
O 3.69392 -5.08975 7.3746
O 7.43079 -3.59069 11.8199
Si 9.07143 -3.89424 11.9666
Si 6.11421 -3.34791 13.1929
O 9.13524 -4.90452 13.2645
O 9.83646 -2.40882 11.9826
O 9.29053 -5.08889 10.8334
O 6.26074 -2.5298 14.7443
O 5.79632 -1.96319 12.2959
O 5.4531 -3.84404 11.709
O 3.99908 -7.3512 17.6046
Si 4.18956 -8.71413 16.7382
Si 3.26135 -5.88757 17.6761
O 7.06066 -4.35154 14.5629
Si 8.22743 -5.51109 14.491
Si 6.18707 -3.65934 16.0682
O 4.57952 -6.68023 14.4104
Si 5.86984 -7.71242 14.3603
Si 3.86091 -5.22289 14.639
O 5.41208 -8.59983 15.669
O 7.36701 -6.95165 14.3668
O 5.32878 -8.64983 13.0994
O 3.17236 -5.22708 16.155
O 5.07789 -4.13656 14.6461
O 3.13942 -4.98796 13.1746
O 7.62461 -3.48626 17.2398
Si 9.22594 -3.82553 16.9405
Si 6.79773 -2.99869 18.816
O 10.0026 -4.38223 18.268
O 9.82976 -2.34442 16.5199
O 9.09158 -5.0384 15.8219
O 7.72859 -3.24352 20.1254
O 6.31467 -1.47988 18.4835
O 5.67795 -3.57425 17.6778
O 8.02138 -0.446026 12.103
Si 9.62493 -0.750277 11.915
Si 6.41188 -0.536656 11.7971
O 7.88737 3.89819 9.51029
Si 9.43441 4.25031 9.82334
Si 6.47879 3.58944 10.2724
O 8.31986 0.905661 8.87741
Si 9.85056 1.17172 9.44229
Si 6.66657 0.85222 8.9586
O 10.144 -0.0096945 10.546
O 10.0535 2.72872 9.96994
O 10.8942 0.951522 8.19581
O 6.15267 -0.104789 10.2175
O 6.07399 2.30274 9.36419
O 6.255 0.654106 7.37455
O 6.82511 4.63984 11.8199
Si 7.90829 5.90892 11.9666
Si 5.95657 3.621 13.1929
O 8.81512 5.45905 13.2646
O 7.00435 7.31414 11.9827
O 9.05245 5.50138 10.8335
O 5.32131 4.15693 14.7443
O 4.5984 4.03803 12.2959
O 6.05569 2.80044 11.7089
O 8.36606 -0.212353 17.6046
Si 9.64164 -0.728842 16.7382
Si 6.72966 -0.119446 17.6761
O 7.29896 3.93885 14.5629
Si 8.88653 4.36956 14.491
Si 6.26268 3.52837 16.0682
O 8.07517 0.625799 14.4104
Si 9.61423 1.22719 14.3603
Si 6.45377 0.732106 14.639
O 10.1539 0.387046 15.6689
O 9.70392 2.90416 14.3668
O 10.1555 0.289928 13.0994
O 6.11314 0.133702 16.155
O 6.12142 2.32919 14.6461
O 5.88958 0.22477 13.1746
O 6.83152 4.85985 17.2398
Si 7.92599 6.07703 16.9405
Si 5.99583 4.3875 18.816
O 8.79639 6.47125 18.268
O 6.9452 7.3405 16.52
O 8.90921 5.35426 15.822
O 6.6733 5.07124 20.1254
O 4.43896 4.72855 18.4835
O 5.93442 3.12998 17.6778
O 4.39699 6.72356 12.103
Si 5.46222 7.96018 11.9151
Si 3.67073 5.28438 11.7972
O 0.567744 8.77956 9.5103
Si 1.03631 10.2954 9.82334
Si 0.130844 7.40531 10.2725
O 3.37563 7.65789 8.87744
Si 3.91054 9.11654 9.44231
Si 2.59527 6.19937 8.95863
O 5.0804 8.77999 10.546
O 2.66362 10.0708 9.96994
O 4.62305 9.91025 8.19584
O 3.16713 5.27583 10.2175
O 1.04279 6.41142 9.36422
O 2.56106 5.74389 7.37457
O -0.605685 8.23046 11.82
Si -1.16313 9.80306 11.9666
Si -0.157668 6.96884 13.1929
O -0.320122 10.3635 13.2646
O -2.83206 9.72291 11.9827
O -0.23811 10.5902 10.8335
O -0.939387 6.68665 14.7443
O -1.19796 6.00121 12.2959
O 0.602521 6.64437 11.7089
O 4.36692 7.13888 17.6046
Si 5.45199 7.98534 16.7382
Si 3.46827 5.76816 17.6761
O 0.238282 8.29031 14.5629
Si 0.65908 9.88054 14.491
Si 0.0756449 7.18763 16.0682
O 3.4956 7.30604 14.4104
Si 3.74431 8.9396 14.3603
Si 2.59284 5.95502 14.639
O 4.74172 8.98689 15.669
O 2.33685 9.85575 14.3669
O 4.82666 8.93978 13.0994
O 2.94077 5.36083 16.155
O 1.04354 6.46571 14.6461
O 2.75015 5.21275 13.1746
O -0.793055 8.346 17.2398
Si -1.2999 9.90244 16.9405
Si -0.801873 7.38609 18.816
O -1.20611 10.8533 18.268
O -2.8845 9.68483 16.52
O -0.182362 10.3925 15.822
O -1.05522 8.31464 20.1254
O -1.87569 6.20837 18.4835
O 0.256493 6.70415 17.6778
O -3.62436 7.16962 12.1031
Si -4.16265 8.71046 11.9151
Si -2.74118 5.82103 11.7972
O -7.31952 4.88143 9.51029
Si -8.39794 6.04518 9.82335
Si -6.34797 3.81581 10.2724
O -4.94427 6.75225 8.87745
Si -5.93994 7.94491 9.44232
Si -4.07138 5.34715 8.95866
O -5.06351 8.78972 10.546
O -7.38983 7.34219 9.96996
O -6.27105 8.95886 8.19588
O -2.98563 5.3806 10.2176
O -5.03124 4.10866 9.36422
O -3.69405 5.08979 7.37459
O -7.43083 3.59067 11.82
Si -9.07145 3.89429 11.9666
Si -6.11425 3.34795 13.1929
O -9.13528 4.90456 13.2646
O -9.83649 2.40888 11.9827
O -9.29049 5.08895 10.8335
O -6.2608 2.52985 14.7443
O -5.79638 1.9632 12.2959
O -5.45314 3.84402 11.7089
O -3.99911 7.35119 17.6046
Si -4.18958 8.71414 16.7382
Si -3.26138 5.88757 17.6761
O -7.0607 4.35161 14.5629
Si -8.22747 5.51115 14.4911
Si -6.18711 3.65938 16.0683
O -4.57955 6.68026 14.4104
Si -5.86987 7.71246 14.3603
Si -3.86095 5.22292 14.639
O -5.41209 8.59986 15.669
O -7.36705 6.9517 14.3669
O -5.32881 8.64988 13.0994
O -3.17239 5.22709 16.155
O -5.07793 4.13659 14.6461
O -3.13947 4.98799 13.1746
O -7.62465 3.48628 17.2398
Si -9.22598 3.82556 16.9405
Si -6.79776 2.99871 18.816
O -10.0026 4.3822 18.268
O -9.82979 2.34445 16.52
O -9.09161 5.03845 15.822
O -7.72863 3.24352 20.1255
O -6.3147 1.4799 18.4836
O -5.67799 3.57428 17.6778
O -8.02144 0.44595 12.1029
Si -9.62498 0.750331 11.9151
Si -6.41194 0.536675 11.7971
O -7.88739 -3.89819 9.51035
Si -9.43444 -4.25029 9.8234
Si -6.47881 -3.58942 10.2725
O -8.3199 -0.905661 8.87744
Si -9.85059 -1.1717 9.44234
Si -6.6666 -0.852231 8.9586
O -10.1441 0.00973699 10.546
O -10.0536 -2.72869 9.97
O -10.8942 -0.951502 8.19587
O -6.1527 0.104798 10.2175
O -6.07403 -2.30274 9.36421
O -6.25505 -0.654126 7.37454
O -6.82513 -4.63983 11.82
Si -7.9083 -5.90891 11.9666
Si -5.95659 -3.62098 13.193
O -8.81514 -5.45903 13.2646
O -7.00437 -7.31413 11.9827
O -9.05247 -5.50136 10.8335
O -5.32135 -4.15687 14.7444
O -4.59842 -4.03801 12.296
O -6.05572 -2.80042 11.709
O -8.36606 0.212363 17.6045
Si -9.64165 0.728863 16.7382
Si -6.72966 0.119482 17.6761
O -7.29899 -3.9388 14.5629
Si -8.88655 -4.36953 14.491
Si -6.26276 -3.52828 16.0683
O -8.07516 -0.625753 14.4103
Si -9.61422 -1.22714 14.3603
Si -6.45377 -0.732044 14.639
O -10.1539 -0.387018 15.6689
O -9.70393 -2.90412 14.3668
O -10.1556 -0.289865 13.0994
O -6.11315 -0.13362 16.155
O -6.12145 -2.32914 14.6461
O -5.88959 -0.224713 13.1745
O -6.83156 -4.85982 17.2398
Si -7.92601 -6.07701 16.9405
Si -5.99587 -4.3875 18.816
O -8.79643 -6.47126 18.268
O -6.94522 -7.34047 16.52
O -8.90923 -5.35424 15.822
O -6.67329 -5.07133 20.1254
O -4.43901 -4.72851 18.4835
O -5.93451 -3.12994 17.6778
O -4.39701 -6.72354 12.103
Si -5.46224 -7.96016 11.9151
Si -3.67076 -5.28435 11.7972
O -0.567762 -8.77951 9.51033
Si -1.03633 -10.2954 9.82335
Si -0.130875 -7.40527 10.2725
O -3.37564 -7.65785 8.87745
Si -3.91055 -9.11651 9.44232
Si -2.59528 -6.19933 8.95866
O -5.08041 -8.77997 10.546
O -2.66363 -10.0708 9.96994
O -4.62307 -9.9102 8.19583
O -3.16715 -5.27579 10.2176
O -1.04281 -6.41137 9.36427
O -2.56105 -5.74385 7.3746
O 0.605665 -8.23044 11.82
Si 1.16312 -9.80304 11.9666
Si 0.15764 -6.96884 13.193
O 0.320113 -10.3635 13.2646
O 2.83204 -9.72287 11.9827
O 0.238097 -10.5901 10.8335
O 0.93936 -6.68667 14.7444
O 1.19791 -6.00118 12.296
O -0.602562 -6.64436 11.709
O -4.36693 -7.13885 17.6046
Si -5.45201 -7.98532 16.7382
Si -3.4683 -5.76812 17.6761
O -0.238313 -8.29032 14.5629
Si -0.659098 -9.88055 14.491
Si -0.0756901 -7.18766 16.0683
O -3.49561 -7.30603 14.4104
Si -3.74433 -8.93958 14.3603
Si -2.59286 -5.95501 14.639
O -4.74173 -8.98688 15.669
O -2.33687 -9.85574 14.3669
O -4.82667 -8.93977 13.0994
O -2.9408 -5.3608 16.155
O -1.04356 -6.46572 14.6462
O -2.75016 -5.21274 13.1746
O 0.793037 -8.34604 17.2398
Si 1.2999 -9.90246 16.9405
Si 0.801881 -7.38614 18.816
O 1.2061 -10.8534 18.268
O 2.88449 -9.68484 16.52
O 0.182347 -10.3926 15.822
O 1.05532 -8.3147 20.1255
O 1.87566 -6.20839 18.4835
O -0.256508 -6.70419 17.6779
O 3.62434 -7.16956 23.787
Si 4.16263 -8.71039 23.599
Si 2.74112 -5.82099 23.4812
O 7.31955 -4.88144 21.1943
Si 8.39802 -6.04516 21.5073
Si 6.34791 -3.81595 21.9565
O 4.94416 -6.75219 20.5614
Si 5.93992 -7.9448 21.1262
Si 4.07125 -5.3471 20.6426
O 5.06352 -8.78964 22.23
O 7.38984 -7.34213 21.6539
O 6.27098 -8.95869 19.8798
O 2.98551 -5.38057 21.9015
O 5.03117 -4.10869 21.0482
O 3.6939 -5.08971 19.0586
O 7.4308 -3.59069 23.5039
Si 9.07143 -3.89424 23.6505
Si 6.11422 -3.34791 24.8769
O 9.13525 -4.90453 24.9485
O 9.83646 -2.40882 23.6666
O 9.29053 -5.08887 22.5174
O 6.26076 -2.52983 26.4283
O 5.79632 -1.96319 23.9799
O 5.45311 -3.84404 23.393
O 3.99905 -7.35122 29.2885
Si 4.18956 -8.71415 28.4222
Si 3.26131 -5.8876 29.3601
O 7.06067 -4.35157 26.2469
Si 8.22744 -5.51111 26.175
Si 6.18708 -3.6594 27.7522
O 4.57952 -6.68023 26.0944
Si 5.86985 -7.71243 26.0443
Si 3.86092 -5.2229 26.323
O 5.41208 -8.59984 27.3529
O 7.36702 -6.95167 26.0508
O 5.32879 -8.64983 24.7833
O 3.17233 -5.2271 27.839
O 5.0779 -4.13658 26.3301
O 3.13944 -4.98795 24.8586
O 7.62464 -3.48632 28.9238
Si 9.22597 -3.82558 28.6245
Si 6.79777 -2.99876 30.5
O 10.0026 -4.38228 29.9519
O 9.82977 -2.34446 28.2039
O 9.0916 -5.03843 27.5059
O 7.72873 -3.24344 31.8094
O 6.31464 -1.47998 30.1675
O 5.67799 -3.57432 29.3618
O 8.02137 -0.44603 23.787
Si 9.62492 -0.750273 23.599
Si 6.41188 -0.536664 23.4811
O 7.88732 3.89817 21.1943
Si 9.43436 4.2503 21.5073
Si 6.47875 3.58939 21.9565
O 8.31983 0.905655 20.5614
Si 9.85053 1.17172 21.1263
Si 6.66654 0.852207 20.6426
O 10.144 -0.00969068 22.23
O 10.0535 2.72872 21.6539
O 10.8941 0.951516 19.8798
O 6.15266 -0.104816 21.9015
O 6.07396 2.30271 21.0482
O 6.25496 0.654102 19.0585
O 6.82509 4.63982 23.504
Si 7.90827 5.9089 23.6506
Si 5.95656 3.62101 24.877
O 8.81512 5.45904 24.9486
O 7.00433 7.31412 23.6667
O 9.05242 5.50136 22.5175
O 5.32133 4.15692 26.4284
O 4.59838 4.03801 23.98
O 6.05567 2.80041 23.393
O 8.36602 -0.212414 29.2885
Si 9.64162 -0.72888 28.4222
Si 6.72961 -0.11953 29.3601
O 7.29897 3.93884 26.2469
Si 8.88654 4.36955 26.175
Si 6.26273 3.52834 27.7523
O 8.07516 0.625787 26.0944
Si 9.61422 1.22717 26.0443
Si 6.45376 0.732093 26.323
O 10.1539 0.38702 27.3529
O 9.70392 2.90415 26.0508
O 10.1555 0.289923 24.7834
O 6.11312 0.133638 27.8389
O 6.12143 2.32918 26.3301
O 5.88957 0.22478 24.8585
O 6.83157 4.85985 28.9238
Si 7.92602 6.07703 28.6245
Si 5.99588 4.38753 30.5
O 8.79644 6.47128 29.952
O 6.94521 7.34048 28.204
O 8.90923 5.35426 27.506
O 6.67326 5.07147 31.8094
O 4.43901 4.72848 30.1675
O 5.93448 3.12998 29.3618
O 4.39697 6.72353 23.787
Si 5.4622 7.96015 23.5991
Si 3.67072 5.28435 23.4812
O 0.567722 8.77947 21.1943
Si 1.03629 10.2953 21.5073
Si 0.130853 7.40524 21.9565
O 3.37561 7.65782 20.5614
Si 3.91052 9.11648 21.1263
Si 2.59525 6.1993 20.6426
O 5.08037 8.77995 22.23
O 2.6636 10.0708 21.6539
O 4.62304 9.91017 19.8798
O 3.16713 5.27577 21.9015
O 1.04278 6.41134 21.0483
O 2.56102 5.74381 19.0586
O -0.605687 8.23042 23.504
Si -1.16314 9.80303 23.6506
Si -0.157671 6.96884 24.877
O -0.32013 10.3634 24.9486
O -2.83206 9.72285 23.6667
O -0.23812 10.5901 22.5175
O -0.939384 6.68667 26.4284
O -1.19793 6.00117 23.98
O 0.602541 6.64434 23.393
O 4.36693 7.13882 29.2886
Si 5.45199 7.98529 28.4222
Si 3.46829 5.76808 29.3601
O 0.238293 8.29032 26.2469
Si 0.659078 9.88055 26.175
Si 0.075678 7.18767 27.7523
O 3.49559 7.30602 26.0944
Si 3.7443 8.93958 26.0443
Si 2.59283 5.955 26.323
O 4.74171 8.98686 27.353
O 2.33685 9.85574 26.0509
O 4.82664 8.93976 24.7834
O 2.94079 5.36077 27.839
O 1.04354 6.46571 26.3302
O 2.75012 5.21274 24.8586
O -0.793049 8.34605 28.9238
Si -1.29991 9.90248 28.6245
Si -0.801896 7.38616 30.5
O -1.20612 10.8534 29.952
O -2.8845 9.68484 28.2039
O -0.182365 10.3926 27.506
O -1.05541 8.31473 31.8094
O -1.87565 6.2084 30.1675
O 0.256495 6.70421 29.3619
O -3.62436 7.16955 23.787
Si -4.16264 8.7104 23.5991
Si -2.74113 5.821 23.4812
O -7.31957 4.88145 21.1943
Si -8.39803 6.04519 21.5073
Si -6.34792 3.81597 21.9565
O -4.94415 6.75221 20.5614
Si -5.93991 7.94482 21.1263
Si -4.07125 5.34712 20.6426
O -5.06352 8.78965 22.23
O -7.38983 7.34215 21.6539
O -6.27097 8.95872 19.8798
O -2.98551 5.38058 21.9015
O -5.03118 4.10871 21.0483
O -3.69392 5.08971 19.0586
O -7.43081 3.5907 23.5039
Si -9.07144 3.89426 23.6505
Si -6.11423 3.34792 24.8769
O -9.13526 4.90454 24.9485
O -9.83647 2.40883 23.6666
O -9.29054 5.0889 22.5174
O -6.26077 2.52982 26.4283
O -5.79633 1.96321 23.9799
O -5.45312 3.84406 23.393
O -3.99908 7.3512 29.2886
Si -4.18957 8.71413 28.4222
Si -3.26134 5.88758 29.3601
O -7.06068 4.35157 26.2469
Si -8.22746 5.51111 26.175
Si -6.1871 3.65938 27.7522
O -4.57953 6.68023 26.0944
Si -5.86986 7.71243 26.0443
Si -3.86093 5.2229 26.323
O -5.41209 8.59983 27.353
O -7.36703 6.95166 26.0508
O -5.32879 8.64984 24.7834
O -3.17236 5.22708 27.839
O -5.07791 4.13658 26.3301
O -3.13945 4.98795 24.8586
O -7.62465 3.48629 28.9238
Si -9.22598 3.82556 28.6245
Si -6.79779 2.99873 30.5
O -10.0026 4.38225 29.9519
O -9.82979 2.34444 28.2039
O -9.09161 5.03842 27.5059
O -7.7287 3.24349 31.8094
O -6.31469 1.47994 30.1675
O -5.678 3.5743 29.3618
O -8.02138 0.446042 23.787
Si -9.62493 0.750286 23.599
Si -6.41188 0.53668 23.4811
O -7.88729 -3.89816 21.1942
Si -9.43434 -4.25028 21.5073
Si -6.47873 -3.58938 21.9564
O -8.31982 -0.905614 20.5614
Si -9.85051 -1.17169 21.1262
Si -6.66652 -0.852177 20.6426
O -10.144 0.00970257 22.23
O -10.0535 -2.7287 21.6539
O -10.8941 -0.951486 19.8798
O -6.15265 0.104834 21.9015
O -6.07394 -2.30268 21.0482
O -6.25495 -0.654066 19.0585
O -6.82509 -4.6398 23.5039
Si -7.90827 -5.90888 23.6505
Si -5.95657 -3.62098 24.8769
O -8.81512 -5.45903 24.9485
O -7.00433 -7.3141 23.6666
O -9.05241 -5.50134 22.5174
O -5.32134 -4.15691 26.4283
O -4.59838 -4.03799 23.98
O -6.05567 -2.8004 23.3929
O -8.36606 0.212387 29.2885
Si -9.64165 0.728862 28.4222
Si -6.72966 0.1195 29.3601
O -7.29898 -3.93883 26.2469
Si -8.88655 -4.36955 26.175
Si -6.26274 -3.52835 27.7522
O -8.07518 -0.625781 26.0944
Si -9.61424 -1.22717 26.0443
Si -6.45379 -0.732083 26.323
O -10.1539 -0.387032 27.3529
O -9.70393 -2.90415 26.0508
O -10.1555 -0.289916 24.7833
O -6.11315 -0.133656 27.839
O -6.12144 -2.32917 26.3301
O -5.88959 -0.224757 24.8585
O -6.83157 -4.85986 28.9238
Si -7.92602 -6.07704 28.6245
Si -5.99588 -4.38754 30.5
O -8.79644 -6.4713 29.9519
O -6.94522 -7.34049 28.2039
O -8.90923 -5.35427 27.5059
O -6.6733 -5.07137 31.8094
O -4.43902 -4.72852 30.1675
O -5.93449 -3.12999 29.3618
O -4.39698 -6.72351 23.787
Si -5.46221 -7.96013 23.599
Si -3.67072 -5.28432 23.4812
O -0.567711 -8.77944 21.1942
Si -1.03629 -10.2953 21.5072
Si -0.130836 -7.40522 21.9565
O -3.3756 -7.65778 20.5614
Si -3.91052 -9.11644 21.1262
Si -2.59525 -6.19926 20.6426
O -5.08037 -8.77993 22.23
O -2.66359 -10.0707 21.6538
O -4.62303 -9.91011 19.8797
O -3.16712 -5.27574 21.9015
O -1.04278 -6.4113 21.0482
O -2.56104 -5.74376 19.0586
O 0.605684 -8.23042 23.5039
Si 1.16313 -9.80302 23.6505
Si 0.157651 -6.96884 24.8769
O 0.320119 -10.3635 24.9485
O 2.83205 -9.72285 23.6666
O 0.238119 -10.5901 22.5174
O 0.939376 -6.68669 26.4283
O 1.19792 -6.00116 23.98
O -0.602541 -6.64434 23.393
O -4.36693 -7.13885 29.2885
Si -5.452 -7.98532 28.4222
Si -3.4683 -5.76812 29.3601
O -0.238303 -8.29034 26.2469
Si -0.659086 -9.88057 26.175
Si -0.0756802 -7.1877 27.7522
O -3.49559 -7.30603 26.0944
Si -3.74431 -8.93958 26.0443
Si -2.59284 -5.95501 26.323
O -4.74172 -8.98687 27.3529
O -2.33686 -9.85575 26.0508
O -4.82665 -8.93975 24.7833
O -2.94079 -5.36079 27.839
O -1.04354 -6.46573 26.3301
O -2.75012 -5.21273 24.8586
O 0.793033 -8.34609 28.9238
Si 1.2999 -9.90251 28.6244
Si 0.801863 -7.38621 30.5
O 1.2061 -10.8534 29.9519
O 2.88449 -9.68487 28.2039
O 0.182357 -10.3926 27.5059
O 1.05534 -8.31476 31.8094
O 1.87562 -6.20843 30.1675
O -0.256516 -6.70425 29.3618
O 3.62434 -7.16957 35.4709
Si 4.16263 -8.7104 35.2829
Si 2.7411 -5.82101 35.1651
O 7.31951 -4.8814 32.8781
Si 8.39798 -6.04514 33.1911
Si 6.34788 -3.81591 33.6403
O 4.94411 -6.75218 32.2453
Si 5.93988 -7.94479 32.8101
Si 4.0712 -5.34709 32.3266
O 5.06351 -8.78964 33.9139
O 7.3898 -7.34211 33.3377
O 6.27092 -8.95868 31.5636
O 2.98548 -5.38056 33.5855
O 5.03112 -4.10867 32.7321
O 3.69383 -5.08972 30.7425
O 7.43077 -3.59069 35.1878
Si 9.07141 -3.89425 35.3344
Si 6.1142 -3.34795 36.5608
O 9.13524 -4.90454 36.6324
O 9.83644 -2.40883 35.3505
O 9.2905 -5.08887 34.2013
O 6.26075 -2.52985 38.1122
O 5.79628 -1.96321 35.6639
O 5.45308 -3.84404 35.0768
O 3.9991 -7.35128 40.9725
Si 4.1896 -8.7142 40.1061
Si 3.26136 -5.88766 41.044
O 7.06067 -4.35159 37.9308
Si 8.22745 -5.51112 37.8588
Si 6.1871 -3.65941 39.4361
O 4.57953 -6.68027 37.7783
Si 5.86986 -7.71246 37.7282
Si 3.86092 -5.22294 38.0069
O 5.41211 -8.59987 39.0368
O 7.36703 -6.95168 37.7347
O 5.32879 -8.64985 36.4672
O 3.17237 -5.22715 39.5229
O 5.0779 -4.13661 38.014
O 3.13942 -4.98798 36.5425
O 7.62466 -3.48632 40.6077
Si 9.22599 -3.82558 40.3083
Si 6.79781 -2.99876 42.1839
O 10.0026 -4.38228 41.6358
O 9.82979 -2.34446 39.8878
O 9.09162 -5.03844 39.1898
O 7.72873 -3.24354 43.4933
O 6.31471 -1.47997 41.8514
O 5.67802 -3.57433 41.0457
O 8.02135 -0.446044 35.4709
Si 9.6249 -0.75028 35.2829
Si 6.41184 -0.536679 35.1651
O 7.88723 3.89818 32.8781
Si 9.43428 4.25029 33.1911
Si 6.47868 3.58941 33.6404
O 8.31976 0.905622 32.2453
Si 9.85046 1.1717 32.8101
Si 6.66646 0.85218 32.3265
O 10.144 -0.0096881 33.9139
O 10.0534 2.72872 33.3377
O 10.8941 0.951491 31.5636
O 6.15259 -0.104823 33.5854
O 6.07388 2.30269 32.7321
O 6.25489 0.654032 30.7425
O 6.82506 4.63981 35.1878
Si 7.90825 5.90888 35.3345
Si 5.95656 3.62096 36.5608
O 8.81511 5.45902 36.6324
O 7.00431 7.3141 35.3506
O 9.05237 5.50134 34.2013
O 5.32133 4.1569 38.1122
O 4.59836 4.03798 35.6639
O 6.05563 2.8004 35.0768
O 8.36608 -0.212407 40.9724
Si 9.64165 -0.728879 40.1061
Si 6.72968 -0.119509 41.044
O 7.29897 3.93883 37.9308
Si 8.88654 4.36955 37.8589
Si 6.26273 3.52835 39.4361
O 8.07517 0.625775 37.7783
Si 9.61423 1.22717 37.7282
Si 6.45378 0.732079 38.0069
O 10.1539 0.387021 39.0368
O 9.70392 2.90414 37.7347
O 10.1555 0.289915 36.4672
O 6.11316 0.133658 39.5229
O 6.12144 2.32917 38.014
O 5.88956 0.224749 36.5425
O 6.83157 4.85986 40.6077
Si 7.92602 6.07704 40.3084
Si 5.9959 4.38753 42.1839
O 8.79645 6.47129 41.6359
O 6.94522 7.3405 39.8878
O 8.90923 5.35427 39.1898
O 6.67336 5.07134 43.4933
O 4.43903 4.72855 41.8515
O 5.93449 3.12999 41.0457
O 4.39696 6.72351 35.471
Si 5.46218 7.96013 35.283
Si 3.6707 5.28432 35.1651
O 0.567666 8.77943 32.8782
Si 1.03625 10.2953 33.1912
Si 0.130794 7.40521 33.6404
O 3.37557 7.65776 32.2454
Si 3.91048 9.11643 32.8102
Si 2.59521 6.19924 32.3266
O 5.08034 8.77992 33.9139
O 2.66355 10.0707 33.3378
O 4.62299 9.9101 31.5637
O 3.16708 5.27573 33.5855
O 1.04274 6.41129 32.7322
O 2.56103 5.74373 30.7425
O -0.6057 8.23041 35.1879
Si -1.16314 9.80301 35.3345
Si -0.157645 6.96883 36.5609
O -0.320131 10.3634 36.6324
O -2.83207 9.72284 35.3506
O -0.238142 10.5901 34.2013
O -0.93938 6.68668 38.1123
O -1.19793 6.00115 35.6639
O 0.602522 6.64433 35.0769
O 4.36695 7.13887 40.9725
Si 5.45201 7.98533 40.1061
Si 3.4683 5.76815 41.0441
O 0.238294 8.29033 37.9308
Si 0.659074 9.88056 37.8589
Si 0.0756619 7.18768 39.4362
O 3.49559 7.30603 37.7783
Si 3.7443 8.93958 37.7282
Si 2.59284 5.95501 38.007
O 4.74172 8.98688 39.0369
O 2.33684 9.85574 37.7348
O 4.82663 8.93975 36.4673
O 2.94078 5.36081 39.523
O 1.04354 6.46573 38.0141
O 2.75012 5.21272 36.5425
O -0.793055 8.34607 40.6077
Si -1.29992 9.90249 40.3084
Si -0.801879 7.38619 42.1839
O -1.20612 10.8534 41.6359
O -2.88451 9.68486 39.8879
O -0.182376 10.3926 39.1899
O -1.05527 8.31475 43.4934
O -1.87567 6.20844 41.8515
O 0.256499 6.70423 41.0458
O -3.62435 7.16955 35.471
Si -4.16265 8.71038 35.283
Si -2.74113 5.82098 35.1652
O -7.31956 4.88142 32.8782
Si -8.39803 6.04516 33.1912
Si -6.34793 3.81593 33.6404
O -4.94415 6.75218 32.2454
Si -5.93991 7.94479 32.8102
Si -4.07124 5.34709 32.3266
O -5.06353 8.78963 33.9139
O -7.38984 7.34212 33.3378
O -6.27096 8.95868 31.5637
O -2.98552 5.38055 33.5855
O -5.03117 4.10867 32.7322
O -3.69388 5.0897 30.7426
O -7.43081 3.59069 35.1879
Si -9.07145 3.89425 35.3345
Si -6.11423 3.34793 36.5609
O -9.13527 4.90454 36.6324
O -9.83647 2.40882 35.3506
O -9.29054 5.08887 34.2013
O -6.26078 2.52983 38.1123
O -5.79631 1.96321 35.6639
O -5.45312 3.84404 35.0769
O -3.9991 7.35123 40.9725
Si -4.18959 8.71416 40.1061
Si -3.26136 5.88761 41.0441
O -7.06069 4.35157 37.9308
Si -8.22747 5.51111 37.8589
Si -6.18712 3.65938 39.4362
O -4.57954 6.68024 37.7784
Si -5.86987 7.71243 37.7282
Si -3.86094 5.2229 38.007
O -5.41211 8.59984 39.0369
O -7.36704 6.95166 37.7348
O -5.3288 8.64983 36.4673
O -3.17238 5.2271 39.523
O -5.07792 4.13658 38.0141
O -3.13945 4.98795 36.5426
O -7.62467 3.4863 40.6077
Si -9.226 3.82556 40.3084
Si -6.79781 2.99875 42.1839
O -10.0026 4.38225 41.6359
O -9.8298 2.34444 39.8878
O -9.09163 5.03842 39.1898
O -7.72871 3.24352 43.4934
O -6.31471 1.47996 41.8515
O -5.67802 3.57431 41.0458
O -8.02138 0.446043 35.4709
Si -9.62493 0.750277 35.283
Si -6.41188 0.536676 35.1651
O -7.88728 -3.89816 32.8782
Si -9.43433 -4.25028 33.1912
Si -6.47872 -3.58939 33.6404
O -8.31981 -0.905623 32.2453
Si -9.85051 -1.1717 32.8102
Si -6.66651 -0.85218 32.3266
O -10.144 0.00969539 33.9139
O -10.0535 -2.72871 33.3378
O -10.8941 -0.951484 31.5637
O -6.15264 0.104829 33.5855
O -6.07393 -2.30269 32.7322
O -6.25494 -0.65405 30.7425
O -6.82509 -4.63982 35.1879
Si -7.90827 -5.90889 35.3345
Si -5.95657 -3.62099 36.5609
O -8.81512 -5.45903 36.6325
O -7.00433 -7.31411 35.3506
O -9.0524 -5.50135 34.2014
O -5.32134 -4.15692 38.1123
O -4.59838 -4.038 35.6639
O -6.05566 -2.80041 35.0769
O -8.36607 0.212389 40.9725
Si -9.64166 0.728858 40.1061
Si -6.72967 0.119509 41.044
O -7.29898 -3.93884 37.9308
Si -8.88655 -4.36956 37.8589
Si -6.26275 -3.52836 39.4362
O -8.07518 -0.625791 37.7783
Si -9.61424 -1.22718 37.7282
Si -6.45379 -0.732094 38.007
O -10.1539 -0.38704 39.0369
O -9.70394 -2.90416 37.7348
O -10.1555 -0.289927 36.4673
O -6.11316 -0.133654 39.5229
O -6.12145 -2.32918 38.0141
O -5.88958 -0.224765 36.5425
O -6.83158 -4.85989 40.6077
Si -7.92603 -6.07707 40.3084
Si -5.9959 -4.38758 42.1839