2784
 Atoms. Timestep: 3263
O -70.9441 -48.3192 2.74061
Si -72.4325 -49.022 2.74039
Si -69.73 -47.2125 2.74039
O -72.9409 -45.2725 2.74124
Si -74.1799 -46.3561 2.74074
Si -71.4414 -44.6017 2.74023
O -75.0226 -45.966 4.10453
O -73.6591 -47.9203 2.74053
O -75.0224 -45.9658 1.37698
O -71.3721 -43.7134 4.10363
O -70.2221 -45.6687 2.74097
O -71.3715 -43.7147 1.37602
O -68.2107 -52.0782 0.0136273
Si -69.6588 -52.8607 0.0125642
Si -67.0584 -50.9073 0.012997
O -70.3699 -49.1445 0.0124358
Si -71.5483 -50.2937 0.0127887
Si -68.909 -48.3931 0.0127897
O -72.4109 -49.95 1.3765
O -70.9433 -51.8272 0.0127189
O -72.411 -49.9501 4.10421
O -68.8883 -47.5029 1.37655
O -67.6335 -49.3925 0.0127428
O -68.8881 -47.5031 4.10401
O -51.7478 -68.3821 2.74083
Si -52.9351 -69.5221 2.74077
Si -50.9484 -66.9469 2.74077
O -54.6083 -66.1284 2.74068
Si -55.4384 -67.5497 2.74075
Si -53.4005 -65.0148 2.74071
O -56.3611 -67.4481 4.1045
O -54.448 -68.8675 2.7408
O -56.361 -67.4482 1.37695
O -53.6172 -64.151 4.10448
O -51.9052 -65.6392 2.74075
O -53.6172 -64.151 1.37692
O -47.9625 -71.079 0.013291
Si -49.087 -72.2811 0.013224
Si -47.2417 -69.6028 0.0132513
O -50.9414 -68.983 0.0132198
Si -51.6934 -70.4471 0.0132092
Si -49.795 -67.8063 0.0132127
O -52.6202 -70.3954 1.37701
O -50.6331 -71.7093 0.0132058
O -52.6202 -70.3954 4.10452
O -50.058 -66.9554 1.37695
O -48.2682 -68.349 0.0132012
O -50.058 -66.9554 4.10461
O -27.177 -81.32 2.74094
Si -27.9416 -82.7776 2.7409
Si -26.8744 -79.7052 2.74091
O -30.6058 -80.0904 2.74085
Si -30.9418 -81.7017 2.74087
Si -29.8133 -78.6514 2.74089
O -31.8492 -81.8982 4.10459
O -29.5841 -82.6368 2.74088
O -31.8492 -81.8982 1.37714
O -30.293 -77.9011 4.10468
O -28.1971 -78.7691 2.7409
O -30.293 -77.9011 1.37709
O -4.41712 -85.6555 0.0133943
Si -23.4168 -84.1739 0.0133889
Si -22.5169 -81.0485 0.0133926
O -26.2217 -81.6339 0.0133234
Si -26.4704 -83.261 0.0133473
Si -25.508 -80.1541 0.0133538
O -27.3658 -83.5059 1.37714
O -25.0645 -84.1217 0.0133655
O -27.3658 -83.5059 4.10466
O -26.0273 -79.4307 1.37712
O -23.8879 -80.1847 0.0133543
O -26.0273 -79.4307 4.1047
O 0.228519 -85.7742 2.74109
Si -0.0313042 -87.3995 2.74107
Si 0.000958355 -84.1472 2.74107
O -3.41277 -85.7026 2.74095
Si -3.21791 -87.337 2.74097
Si -3.12013 -84.086 2.74094
O -4.01544 -87.8123 4.10474
O -1.63291 -87.7902 2.74103
O -4.01539 -87.8123 1.37717
O -3.81361 -83.5276 4.10474
O -1.55104 -83.6817 2.74107
O -3.81345 -83.5276 1.37706
O 23.1796 -82.6103 0.0134946
Si 4.70272 -87.2798 0.0135497
Si 22.5244 -81.1038 0.0135265
O 1.23413 -85.7669 0.0135026
Si 1.51731 -87.3883 0.0135153
Si 1.43877 -84.1369 0.0135098
O 0.746683 -87.906 1.37729
O 3.12437 -87.7558 0.013529
O 0.746662 -87.9061 4.10486
O 0.716128 -83.6167 1.37731
O 2.98392 -83.649 0.0135311
O 0.716143 -83.6167 4.10482
O 27.6197 -81.2382 2.74093
Si 27.8928 -82.8614 2.74102
Si 26.8837 -79.7696 2.74099
O 24.1463 -82.3338 2.74115
Si 24.8533 -83.8203 2.7411
Si 23.9067 -80.7086 2.74109
O 24.2496 -84.5256 4.10485
O 26.5 -83.7433 2.74106
O 24.2496 -84.5256 1.37735
O 23.0712 -80.4011 4.10489
O 25.2643 -79.8243 2.74103
O 23.0711 -80.4012 1.37732
O 48.3576 -70.9096 0.0132686
Si 32.3395 -81.2337 0.013409
Si 47.2556 -69.6913 0.01326
O 28.5698 -80.9097 0.0135029
Si 29.3564 -82.3556 0.0134642
Si 28.2426 -79.2999 0.0134346
O 28.7918 -83.0926 1.3772
O 30.9965 -82.1897 0.0134425
O 28.7918 -83.0926 4.10483
O 27.3916 -79.0382 1.37723
O 29.5504 -78.3432 0.013462
O 27.3917 -79.0382 4.10471
O 52.1277 -68.1925 2.74078
Si 52.9048 -69.6435 2.7408
Si 50.9616 -67.0353 2.74079
O 49.1855 -70.3393 2.74082
Si 50.3301 -71.5222 2.74081
Si 48.4398 -68.8755 2.74081
O 49.9828 -72.3833 4.10456
O 51.8661 -70.9238 2.74081
O 49.9829 -72.3833 1.37706
O 47.5497 -68.8509 4.10459
O 49.4443 -67.6041 2.74079
O 47.5497 -68.8509 1.37705
O 68.4871 -51.7856 0.013277
Si 56.6 -66.6822 0.0132291
Si 54.5187 -64.1829 0.0132134
O 52.9238 -67.5779 0.0132731
Si 54.1306 -68.6973 0.0132462
Si 52.0999 -66.1567 0.0132389
O 53.8307 -69.5759 1.37703
O 55.6322 -68.0167 0.0132419
O 53.8307 -69.5759 4.10458
O 51.2098 -66.1802 1.37702
O 53.0343 -64.8328 0.0132264
O 51.2097 -66.1802 4.10458
O 71.1935 -48.0071 2.74085
Si 72.3929 -49.1343 2.74083
Si 69.7192 -47.2823 2.74082
O 69.0901 -50.9802 2.74079
Si 70.5523 -51.7362 2.74081
Si 67.9162 -49.8309 2.74079
O 70.4982 -52.663 4.10458
O 71.8171 -50.679 2.74083
O 70.4982 -52.663 1.37703
O 67.0648 -50.0917 4.10458
O 68.4627 -48.3054 2.74078
O 67.0648 -50.0917 1.37701
O 81.4697 -27.2367 0.0132473
Si 74.9513 -45.1492 0.0132755
Si 72.1815 -43.4442 0.013255
O 71.7521 -47.1705 0.0132329
Si 73.2529 -47.8463 0.0132747
Si 70.518 -46.0861 0.0132629
O 73.2488 -48.7747 1.37705
O 74.4592 -46.7226 0.0132927
O 73.2488 -48.7747 4.1046
O 69.6819 -46.3925 1.37706
O 70.9818 -44.5335 0.0132323
O 69.6818 -46.3925 4.10461
O 82.8277 -22.7903 2.74079
Si 84.3243 -23.4755 2.74083
Si 81.1991 -22.5746 2.74079
O 81.7839 -26.2805 2.74079
Si 83.4109 -26.53 2.74081
Si 80.3046 -25.5661 2.74077
O 83.6552 -27.4262 4.10452
O 84.2717 -25.1236 2.74085
O 83.6553 -27.4261 1.37708
O 79.581 -26.0854 4.10457
O 80.3354 -23.9458 2.74079
O 79.5811 -26.0854 1.37696
O 85.9181 0.179409 0.0132174
Si 85.4756 -18.8796 0.0132505
Si 82.3061 -18.1497 0.0131973
O 83.09 -21.8182 0.0132634
Si 84.7281 -21.9789 0.0132784
Si 81.574 -21.1851 0.0132381
O 85.0204 -22.8606 1.37704
O 85.5117 -20.5281 0.0132925
O 85.0204 -22.8606 4.10462
O 80.8796 -21.7431 1.37701
O 81.5175 -19.5656 0.0132293
O 80.8797 -21.7431 4.10458
O 85.7829 4.82578 2.74065
Si 87.4201 4.65518 2.74073
Si 84.171 4.50903 2.74066
O 85.9102 1.18532 2.74077
Si 87.5315 1.46946 2.74082
Si 84.28 1.38882 2.74075
O 88.0497 0.698873 4.10457
O 87.8973 3.07705 2.7408
O 88.0497 0.698857 1.37709
O 83.7605 0.66557 4.10456
O 83.791 2.93373 2.7406
O 83.7605 0.66544 1.37701
O 85.3973 9.45756 0.0130372
Si 87.0413 9.37648 0.0131182
Si 83.8048 9.05441 0.0130657
O 85.7206 5.83008 0.0131484
Si 87.3242 6.20149 0.0131738
Si 84.0819 5.94477 0.0131052
O 87.8832 5.46003 1.37695
O 87.603 7.82644 0.0131607
O 87.8832 5.46006 4.10449
O 83.6022 5.19442 1.37693
O 83.5101 7.46097 0.0129144
O 83.6023 5.19427 4.10448
O 84.7628 14.0627 2.74041
Si 86.4088 14.0709 2.7405
Si 83.1944 13.5736 2.74045
O 85.2814 10.4576 2.74073
Si 86.8624 10.9156 2.74067
Si 83.6388 10.4833 2.74062
O 87.4605 10.2052 4.10451
O 87.0532 12.5533 2.74059
O 87.4605 10.2052 1.37685
O 83.2001 9.70827 4.1044
O 82.9863 11.9666 2.74031
O 83.2002 9.70797 1.377
O 83.8774 18.6266 0.0125607
Si 85.5205 18.7244 0.0127091
Si 82.3381 18.0527 0.0126678
O 84.5925 15.055 0.01303
Si 86.1463 15.5984 0.012941
Si 82.951 14.9914 0.0128924
O 86.7821 14.9214 1.37677
O 86.247 17.2442 0.0128353
O 86.7821 14.9214 4.10424
O 82.5551 14.1937 1.37669
O 82.2182 16.4367 0.0125707
O 82.5552 14.1934 4.10436
O 82.7444 23.136 2.73979
Si 84.3798 23.323 2.73997
Si 81.2389 22.4786 2.73994
O 83.6533 19.6081 2.7404
Si 85.175 20.2355 2.74026
Si 82.0176 19.4551 2.74023
O 85.8468 19.5942 4.10411
O 85.1857 21.8845 2.74012
O 85.8467 19.5942 1.37642
O 81.6659 18.6369 4.10402
O 81.2074 20.8584 2.73989
O 81.666 18.6367 1.37658
O 81.3653 27.5757 0.0118373
Si 82.988 27.8518 0.012039
Si 79.898 26.8369 0.0119892
O 82.4668 24.1034 0.0125889
Si 83.952 24.8129 0.0124008
Si 80.842 23.8611 0.0123864
O 84.658 24.2093 1.37618
O 83.872 26.4599 0.0122218
O 84.658 24.2092 4.10375
O 80.5356 23.0249 1.37619
O 79.9556 25.2176 0.0120502
O 80.5358 23.0247 4.10382
O 79.745 31.9323 2.73899
Si 81.3501 32.2969 2.7392
Si 78.3201 31.1147 2.73916
O 81.0346 28.5266 2.73976
Si 82.4791 29.3158 2.73958
Si 79.4255 28.1953 2.73955
O 83.2172 28.752 4.10337
O 82.3092 30.9558 2.73939
O 83.2171 28.7519 1.37581
O 79.1656 27.3437 4.10338
O 78.466 29.501 2.73926
O 79.1657 27.3436 1.37578
O 77.8895 36.1941 0.0109619
Si 79.4724 36.6454 0.0111845
Si 76.5114 35.2998 0.0111456
O 79.3631 32.8632 0.0118565
Si 80.762 33.7304 0.0116363
Si 77.7744 32.4451 0.0116076
O 81.5299 33.2081 1.37543
O 80.503 35.3586 0.01141
O 81.5298 33.208 4.10299
O 77.5612 31.5806 1.37544
O 76.7452 33.6965 0.0112941
O 77.5614 31.5805 4.10296
O 75.8058 40.3486 2.73803
Si 77.3619 40.8853 2.73829
Si 74.4787 39.3804 2.73827
O 77.4581 37.102 2.73891
Si 78.8076 38.0445 2.73873
Si 75.8945 36.5983 2.7387
O 79.6026 37.5648 4.10253
O 78.4607 39.6562 2.73851
O 79.6025 37.5648 1.37493
O 75.7284 35.7237 4.1025
O 74.799 37.7922 2.73841
O 75.7285 35.7236 1.37495
O 73.4993 44.3826 0.00996756
Si 75.0236 45.0037 0.0102265
Si 72.2267 43.3438 0.010204
O 75.3258 41.2318 0.010949
Si 76.6221 42.2461 0.0107167
Si 73.7921 40.6432 0.0107158
O 77.442 41.8103 1.37452
O 76.188 43.8366 0.0104822
O 77.442 41.8103 4.10204
O 73.6738 39.7609 1.37448
O 72.633 41.7753 0.0104037
O 73.6739 39.7608 4.10212
O 58.8808 62.3565 2.73563
Si 60.1833 63.3629 2.73579
Si 57.9328 61.0148 2.73575
O 61.4851 59.8107 2.73617
Si 62.4623 61.1352 2.73608
Si 60.1652 58.8325 2.73606
O 63.369 60.9359 4.09983
O 61.6178 62.5509 2.73596
O 63.3689 60.9359 1.37232
O 60.2889 57.9505 4.09977
O 58.745 59.6126 2.73616
O 60.2887 57.9508 1.37219
O 55.4062 65.4422 0.00799802
Si 56.6526 66.5174 0.008088
Si 54.5313 64.0517 0.008075
O 58.143 63.04 0.0082668
Si 59.0476 64.4151 0.00822864
Si 56.8777 61.9923 0.00819373
O 59.9637 64.2647 1.37196
O 58.1286 65.7835 0.00819073
O 59.9636 64.2647 4.09957
O 57.0485 61.1181 1.37187
O 55.4175 62.6951 0.00836513
O 57.0482 61.1184 4.09943
O 35.8395 77.8513 2.73542
Si 36.7561 79.2185 2.73549
Si 35.3653 76.2785 2.73543
O 39.1164 76.2609 2.73541
Si 39.6233 77.8269 2.73546
Si 38.174 74.9153 2.73542
O 40.5463 77.925 4.09926
O 38.3739 78.9023 2.7355
O 40.5463 77.925 1.37165
O 38.5704 74.1179 4.09924
O 36.5798 75.2057 2.73542
O 38.5704 74.1179 1.37159
O 13.6788 84.6181 0.00790949
Si 32.4081 81.0938 0.0079336
Si 31.1774 78.0831 0.00786654
O 34.9234 78.2662 0.00787965
Si 35.3456 79.8572 0.00793061
Si 34.0549 76.8718 0.0078766
O 36.2622 80.0044 1.37169
O 34.0405 80.8644 0.00795843
O 36.2622 80.0044 4.09927
O 34.4935 76.0966 1.37163
O 32.4475 77.0767 0.00785244
O 34.4935 76.0966 4.09925
O 9.07258 85.2396 2.73543
Si 9.50713 86.8272 2.7355
Si 9.12349 83.5976 2.73544
O 12.6858 84.7739 2.73546
Si 12.6683 86.4198 2.73551
Si 12.2198 83.1986 2.73545
O 13.5126 86.8059 4.09932
O 11.1417 87.0419 2.73554
O 13.5125 86.8059 1.37168
O 12.8486 82.5683 4.09924
O 10.6161 82.967 2.73541
O 12.8487 82.5683 1.37168
O -14.0882 84.5833 0.0081533
Si 4.78795 87.2195 0.00795921
Si 4.57957 83.9738 0.00789229
O 8.07267 85.3411 0.00789844
Si 7.96652 86.9836 0.0079451
Si 7.6929 83.7427 0.00788392
O 8.78864 87.415 1.37169
O 6.40847 87.5223 0.00798717
O 8.78859 87.415 4.09928
O 8.35521 83.1475 1.37165
O 6.10405 83.4246 0.00788708
O 8.35522 83.1475 4.09924
O -18.6515 83.7024 2.73585
Si -18.7471 85.3456 2.73583
Si -18.0794 82.1624 2.73584
O -15.0795 84.4138 2.7356
Si -15.6211 85.9682 2.7357
Si -15.0177 82.7722 2.73566
O -14.9441 86.6035 4.0995
O -17.2665 86.0707 2.7358
O -14.9441 86.6035 1.37188
O -14.2204 82.3757 4.09943
O -16.4636 82.0408 2.73578
O -14.2204 82.3757 1.37189
O -40.387 75.6787 0.0097341
Si -23.3446 84.2102 0.0085862
Si -39.4236 74.348 0.00972162
O -19.6321 83.479 0.00815885
Si -20.2572 85.0017 0.00828411
Si -19.4814 81.8431 0.00829688
O -19.6158 85.6731 1.372
O -21.9057 85.0147 0.00851371
O -19.6159 85.6731 4.0996
O -18.6637 81.4906 1.37201
O -20.8854 81.0343 0.00871192
O -18.6638 81.4906 4.09958
O -44.4301 73.3858 2.73755
Si -45.0453 74.9125 2.73743
Si -43.3957 72.1096 2.73745
O -41.2722 75.2013 2.73709
Si -42.282 76.5011 2.73725
Si -40.6892 73.6655 2.73726
O -41.8437 77.3195 4.10099
O -43.874 76.0726 2.7374
O -41.8438 77.3195 1.37343
O -39.8067 73.5446 4.10085
O -41.8258 72.5106 2.73771
O -39.8074 73.5442 1.37332
O -62.4614 58.8381 0.0114769
Si -49.0388 72.3673 0.0102513
Si -61.1232 57.8853 0.011376
O -45.2878 72.8609 0.00962858
Si -46.3665 74.1042 0.00987966
Si -44.6222 71.359 0.00987863
O -45.9731 74.9452 1.37359
O -47.9327 73.5896 0.0101012
O -45.9732 74.9452 4.10122
O -43.7347 71.2864 1.37361
O -45.6938 70.1437 0.0100883
O -43.7349 71.2862 4.10112
O -65.5585 55.373 2.7392
Si -66.6297 56.6227 2.73918
Si -64.1709 54.4934 2.73914
O -63.1473 58.1021 2.73888
Si -64.5194 59.0112 2.73898
Si -62.1039 56.8331 2.73894
O -64.366 59.9269 4.1027
O -65.8908 58.0964 2.73909
O -64.366 59.9269 1.37525
O -61.2295 57.001 4.10279
O -62.8115 55.3753 2.73903
O -61.2294 57.001 1.37511
O -78.0156 35.834 0.0126904
Si -69.6024 52.9365 0.0117716
Si -76.4435 35.3574 0.0126167
O -66.2041 54.6015 0.0115328
Si -67.6235 55.4351 0.0116271
Si -65.0942 53.3904 0.0115871
O -67.5194 56.3576 1.37539
O -68.9437 54.4477 0.0117113
O -67.5194 56.3576 4.10297
O -64.2298 53.6048 1.37538
O -65.7226 51.8967 0.0117202
O -64.2298 53.6047 4.10289
O -79.8468 31.5619 2.74036
Si -81.2606 32.4048 2.74028
Si -78.2511 31.1712 2.74033
O -78.4315 34.9179 2.74008
Si -80.022 35.3418 2.74015
Si -77.038 34.0478 2.74017
O -80.1682 36.2586 4.10396
O -81.0301 34.0372 2.74021
O -80.1682 36.2587 1.37636
O -76.2625 34.4854 4.10403
O -77.2439 32.4405 2.74014
O -76.2624 34.4856 1.37644
O -85.3997 9.06363 0.0133125
Si -82.9019 27.9617 0.0129493
Si -83.7577 9.11597 0.0133121
O -80.2126 30.6246 0.0127358
Si -81.8238 30.9615 0.0127393
Si -78.7741 29.8312 0.0127792
O -82.0192 31.8693 1.37648
O -82.7598 29.6043 0.0128622
O -82.0192 31.8693 4.10408
O -78.0234 30.3103 1.37655
O -78.8929 28.2151 0.0129368
O -78.0233 30.3103 4.10413
O -85.7663 4.43062 2.7408
Si -87.3755 4.77675 2.74083
Si -84.1295 4.57106 2.74079
O -85.5 8.06284 2.74088
Si -87.1425 7.95557 2.74087
Si -83.9013 7.68474 2.74087
O -87.5746 8.77745 4.10459
O -87.6799 6.39701 2.74085
O -87.5746 8.77748 1.37716
O -83.307 8.34793 4.10465
O -83.5817 6.09611 2.74083
O -83.307 8.34792 1.37708
O -85.8828 -0.216272 0.0132596
Si -87.5084 0.0425662 0.0133001
Si -84.256 0.0122166 0.0132515
O -85.8127 3.42508 0.0132476
Si -87.4471 3.22942 0.0132741
Si -84.1959 3.13386 0.0132377
O -87.9229 4.02683 1.377
O -87.8996 1.64412 0.0133076
O -87.9229 4.0268 4.10464
O -83.6381 3.82826 1.377
O -83.7912 1.56467 0.0132298
O -83.6381 3.82825 4.10458
O -85.7499 -4.86321 2.74081
Si -87.387 -4.69225 2.74085
Si -84.1378 -4.54698 2.7408
O -85.8752 -1.2228 2.74083
Si -87.4966 -1.5065 2.74086
Si -84.2451 -1.42658 2.74081
O -88.0146 -0.735829 4.10463
O -87.8633 -3.11384 2.74087
O -88.0146 -0.735841 1.37707
O -83.7254 -0.703233 4.10458
O -83.757 -2.97185 2.74079
O -83.7254 -0.70321 1.37704
O -85.3679 -9.49635 0.0132401
Si -87.0119 -9.41428 0.0132888
Si -83.7754 -9.09296 0.0132482
O -85.6888 -5.86747 0.0132569
Si -87.2924 -6.23881 0.0132948
Si -84.0501 -5.98297 0.0132478
O -87.8507 -5.49688 1.37715
O -87.5722 -7.86367 0.0133096
O -87.8507 -5.4969 4.10454
O -83.5698 -5.23288 1.37697
O -83.4798 -7.49972 0.013234
O -83.5698 -5.23287 4.10464
O -84.7333 -14.101 2.74083
Si -86.3792 -14.1087 2.74084
Si -83.1651 -13.6116 2.74081
O -85.2525 -10.4958 2.74082
Si -86.8336 -10.9535 2.74085
Si -83.6099 -10.5216 2.74081
O -87.4314 -10.2429 4.1047
O -87.024 -12.5913 2.74086
O -87.4314 -10.243 1.37698
O -83.171 -9.74664 4.10446
O -82.9572 -12.0046 2.74077
O -83.171 -9.74662 1.37715
O -83.8461 -18.6644 0.0132134
Si -85.4893 -18.7616 0.0132831
Si -82.3071 -18.0898 0.013247
O -84.5627 -15.0923 0.0132895
Si -86.1163 -15.6359 0.0132872
Si -82.9211 -15.0289 0.0132501
O -86.7524 -14.9592 1.37705
O -86.2162 -17.2817 0.0133083
O -86.7524 -14.9592 4.10462
O -82.5255 -14.2311 1.37703
O -82.1879 -16.4738 0.0131703
O -82.5255 -14.231 4.10462
O -82.712 -23.1715 2.74074
Si -84.3473 -23.3587 2.74078
Si -81.2064 -22.5142 2.74074
O -83.6216 -19.645 2.74088
Si -85.1435 -20.2721 2.74084
Si -81.986 -19.4914 2.74081
O -85.8155 -19.6312 4.10462
O -85.154 -21.9208 2.74082
O -85.8155 -19.6312 1.37705
O -81.6345 -18.6733 4.10459
O -81.175 -20.8942 2.74064
O -81.6346 -18.6732 1.3771
O -81.3329 -27.61 0.0131901
Si -82.9556 -27.886 0.0131627
Si -79.8654 -26.8715 0.0131958
O -82.4343 -24.1384 0.0132442
Si -83.9196 -24.8478 0.0132153
Si -80.8095 -23.8961 0.0131885
O -84.6256 -24.2447 1.37706
O -83.8398 -26.4945 0.0131378
O -84.6256 -24.2447 4.1045
O -80.5031 -23.0602 1.37701
O -79.9229 -25.2522 0.0130122
O -80.5031 -23.06 4.10457
O -79.7137 -31.9663 2.74066
Si -81.3189 -32.3303 2.74062
Si -78.2887 -31.1488 2.74074
O -81.0027 -28.5596 2.74078
Si -82.447 -29.3491 2.74071
Si -79.3935 -28.2293 2.74075
O -83.185 -28.7858 4.10451
O -82.2776 -30.9891 2.74055
O -83.185 -28.7857 1.377
O -79.1332 -27.3781 4.10464
O -78.4343 -29.5351 2.74059
O -79.1333 -27.3779 1.37701
O -77.8605 -36.2281 0.0131358
Si -79.4435 -36.6793 0.013019
Si -76.4822 -35.3343 0.0132078
O -79.3325 -32.8965 0.0131984
Si -80.7316 -33.7636 0.0130694
Si -77.7437 -32.479 0.013196
O -81.4992 -33.2412 1.37687
O -80.4735 -35.3919 0.0130123
O -81.4992 -33.2411 4.10442
O -77.53 -31.6148 1.377
O -76.7151 -33.7309 0.0132104
O -77.5301 -31.6147 4.10456
O -75.7765 -40.3823 2.74136
Si -77.3325 -40.9191 2.74038
Si -74.4491 -39.4145 2.74009
O -77.4291 -37.1363 2.74076
Si -78.7788 -38.0785 2.74058
Si -75.8654 -36.6328 2.74078
O -79.5738 -37.5986 4.10433
O -78.4316 -39.6902 2.7406
O -79.5737 -37.5987 1.37678
O -75.6993 -35.7581 4.10451
O -74.7697 -37.8263 2.74107
O -75.6993 -35.7583 1.37694
O -73.469 -44.4169 0.0123238
Si -74.9934 -45.0378 0.0131446
Si -72.1964 -43.3781 0.0126217
O -75.2961 -41.2657 0.0107351
Si -76.5923 -42.2802 0.0127186
Si -73.7623 -40.6775 0.012418
O -77.4122 -41.8441 1.37645
O -76.1578 -43.8706 0.013177
O -77.4124 -41.8446 4.104
O -73.6448 -39.7944 1.37582
O -72.6032 -41.8097 0.0137804
O -73.6436 -39.7956 4.1034
O 70.9749 48.2845 2.73701
Si 72.4632 48.9877 2.7373
Si 69.7608 47.1779 2.73728
O 72.9712 45.2383 2.73801
Si 74.2102 46.3219 2.73777
Si 71.4718 44.5671 2.73776
O 75.0528 45.9318 4.10158
O 73.6897 47.8861 2.73755
O 75.0527 45.9317 1.37396
O 71.4021 43.6796 4.10156
O 70.2525 45.6341 2.73753
O 71.4022 43.6796 1.37398
O 68.2423 52.0433 0.00903464
Si 69.6902 52.8263 0.00928081
Si 67.0901 50.8724 0.00926299
O 70.4012 49.11 0.0099723
Si 71.5795 50.2594 0.00973503
Si 68.9405 48.3584 0.00972579
O 72.442 49.9159 1.37351
O 70.9747 51.793 0.00952046
O 72.4419 49.9158 4.10107
O 68.9192 47.4683 1.3735
O 67.665 49.3576 0.00956531
O 68.9192 47.4684 4.10102
O 65.3095 55.6479 2.73612
Si 66.7127 56.5083 2.73639
Si 64.2223 54.4164 2.73636
O 67.6245 52.8366 2.73702
Si 68.7388 54.0481 2.73682
Si 66.2067 52.0067 2.73682
O 69.6186 53.7519 4.1006
O 68.0516 55.5465 2.73663
O 69.6186 53.7519 1.37305
O 66.234 51.1167 4.10056
O 64.8787 52.935 2.73677
O 66.234 51.1169 1.373
O 62.185 59.0891 0.00834298
Si 63.5401 60.0235 0.00853338
Si 61.1665 57.8002 0.00850545
O 64.6496 56.4061 0.00898225
Si 65.6964 57.6764 0.00882143
Si 63.2786 55.5011 0.00880486
O 66.5911 57.4285 1.37253
O 64.9289 59.1353 0.00870756
O 66.591 57.4285 4.10019
O 63.3541 54.6139 1.37254
O 61.9024 56.3566 0.00888949
O 63.3539 54.6142 4.1
O -65.2794 -55.6844 2.74077
Si -66.683 -56.5442 2.7407
Si -64.1918 -54.4532 2.74068
O -67.593 -52.8717 2.73907
Si -68.7077 -54.0828 2.74004
Si -66.175 -52.0422 2.74046
O -69.5875 -53.7861 4.10377
O -68.0213 -55.5816 2.74035
O -69.5876 -53.7865 1.37623
O -66.2022 -51.1524 4.10443
O -64.8475 -52.9714 2.74011
O -66.2022 -51.1518 1.37687
O -62.1571 -59.1273 0.0130467
Si -63.5124 -60.0613 0.0131226
Si -61.1375 -57.8391 0.0129941
O -64.6197 -56.4435 0.0132302
Si -65.6673 -57.7131 0.0131616
Si -63.2484 -55.5389 0.0131315
O -66.5617 -57.4648 1.37703
O -64.9007 -59.1725 0.0129819
O -66.5619 -57.4645 4.10459
O -63.3234 -54.6519 1.3771
O -61.8726 -56.395 0.0127724
O -63.3238 -54.6514 4.1046
O -58.8546 -62.3973 2.74067
Si -60.1577 -63.4029 2.74074
Si -57.9059 -61.0562 2.74065
O -61.4576 -59.8494 2.7406
Si -62.4353 -61.1736 2.74069
Si -60.1369 -58.8723 2.74056
O -63.3418 -60.9738 4.10447
O -61.5917 -62.5898 2.74076
O -63.3418 -60.9737 1.37695
O -60.2598 -57.9904 4.1044
O -58.7172 -59.6535 2.74058
O -60.2599 -57.9903 1.37677
O -55.3812 -65.485 0.0132041
Si -56.6283 -66.5593 0.0132054
Si -54.506 -64.0948 0.0131534
O -58.1175 -63.0809 0.0130803
Si -59.0225 -64.4557 0.013188
Si -56.8513 -62.0342 0.0130943
O -59.9385 -64.3048 1.37693
O -58.104 -65.8245 0.0133108
O -59.9384 -64.3049 4.1045
O -57.0214 -61.1601 1.37689
O -55.3916 -62.7378 0.0131499
O -57.0214 -61.1601 4.1044
O 51.7713 68.3383 2.73544
Si 52.9584 69.4784 2.73553
Si 50.9726 66.9026 2.73551
O 54.6333 66.0853 2.73564
Si 55.4625 67.5072 2.73564
Si 53.4257 64.9715 2.73563
O 56.385 67.4062 4.09947
O 54.4715 68.8245 2.73561
O 56.385 67.4062 1.37179
O 53.6427 64.1076 4.0993
O 51.9302 65.5954 2.73573
O 53.6426 64.1078 1.37183
O 47.986 71.0332 0.00787931
Si 49.1099 72.2357 0.00793151
Si 47.2651 69.557 0.00791113
O 50.9646 68.9386 0.00795398
Si 51.7167 70.4027 0.00796906
Si 49.8188 67.7613 0.00795359
O 52.6434 70.3515 1.37173
O 50.6561 71.6646 0.00797732
O 52.6434 70.3515 4.0993
O 50.0822 66.9106 1.37171
O 48.2917 68.3033 0.00803415
O 50.0821 66.9107 4.09921
O 44.0616 73.5232 2.73544
Si 45.1196 74.7842 2.73548
Si 43.4214 72.0103 2.73545
O 47.1483 71.5896 2.73547
Si 47.8203 73.0922 2.73549
Si 46.067 70.3528 2.73547
O 48.7485 73.0906 4.09926
O 46.694 74.2958 2.7355
O 48.7484 73.0907 1.3717
O 46.3755 69.5174 4.09921
O 44.5133 70.8131 2.73549
O 46.3754 69.5174 1.37167
O 40.0091 75.7977 0.00786903
Si 40.9976 77.1138 0.00790702
Si 39.4508 74.2527 0.00786692
O 43.1954 74.034 0.00790943
Si 43.786 75.5704 0.00792075
Si 42.1823 72.7407 0.00789505
O 44.713 75.6186 1.3717
O 42.5963 76.7115 0.007936
O 44.713 75.6186 4.09924
O 42.5352 71.923 1.37162
O 40.606 73.1162 0.00788486
O 42.5352 71.923 4.09927
O -44.038 -73.5679 2.74082
Si -45.0962 -74.8287 2.7408
Si -43.3973 -72.0552 2.74082
O -47.1245 -71.6353 2.74083
Si -47.7974 -73.1375 2.74078
Si -46.0433 -70.3983 2.74081
O -48.7257 -73.136 4.1045
O -46.6708 -74.3408 2.74078
O -48.7257 -73.136 1.37707
O -46.3519 -69.563 4.10463
O -44.4895 -70.8581 2.74079
O -46.352 -69.5629 1.37701
O -39.9857 -75.8441 0.013302
Si -40.9747 -77.1598 0.013274
Si -39.4272 -74.2991 0.0132998
O -43.1714 -74.0788 0.0132883
Si -43.7623 -75.615 0.0132427
Si -42.158 -72.7858 0.01327
O -44.6893 -75.663 1.37701
O -42.573 -76.7565 0.013251
O -44.6893 -75.663 4.10459
O -42.5109 -71.9681 1.37704
O -40.5818 -73.1621 0.013293
O -42.5109 -71.9681 4.10461
O -35.8171 -77.8987 2.74087
Si -36.7336 -79.2659 2.74084
Si -35.3422 -76.326 2.74086
O -39.093 -76.3079 2.74085
Si -39.6006 -77.8737 2.74083
Si -38.1507 -74.9622 2.74086
O -40.5238 -77.9713 4.1046
O -38.3515 -78.9495 2.74083
O -40.5238 -77.9713 1.37707
O -38.5469 -74.1646 4.10459
O -36.5565 -75.2529 2.74089
O -38.5469 -74.1646 1.37711
O -31.5429 -79.7257 0.013361
Si -32.3849 -81.14 0.0133112
Si -31.1538 -78.1297 0.013334
O -34.9006 -78.3135 0.0132935
Si -35.3228 -79.9045 0.0132843
Si -34.0318 -76.9193 0.0133082
O -36.2394 -80.0518 1.37708
O -34.0175 -80.9112 0.0132897
O -36.2394 -80.0518 4.1046
O -34.4704 -76.1442 1.37707
O -32.4243 -77.1238 0.0133433
O -34.4704 -76.1442 4.10463
O 31.5664 79.6792 0.00786161
O 27.2009 81.2738 2.73542
Si 27.9651 82.7316 2.7355
Si 26.8984 79.6591 2.73542
O 30.6293 80.0444 2.73542
Si 30.9652 81.6558 2.73549
Si 29.8371 78.6052 2.73542
O 31.8724 81.8521 4.09933
O 29.6076 82.591 2.73552
O 31.8724 81.8521 1.37163
O 30.3167 77.8548 4.09918
O 28.221 78.7228 2.73541
O 30.3167 77.8548 1.37167
O 22.7557 82.6308 0.00790667
Si 23.4404 84.1276 0.0079606
Si 22.5404 81.0021 0.00787821
O 26.2452 81.5878 0.00786907
Si 26.494 83.2149 0.00794029
Si 25.5317 80.108 0.00786016
O 27.3893 83.4599 1.37174
O 25.088 84.0756 0.00797684
O 27.3893 83.4599 4.09923
O 26.0512 79.3845 1.3716
O 23.9115 80.1384 0.00786319
O 26.0512 79.3845 4.09923
O 18.2435 83.747 2.73541
Si 18.8469 85.2784 2.73549
Si 18.1168 82.1091 2.73541
O 21.7851 82.8928 2.73543
Si 21.9453 84.531 2.73552
Si 21.1518 81.377 2.73543
O 22.8263 84.8238 4.09928
O 20.495 85.3148 2.73554
O 22.8263 84.8238 1.37174
O 21.7092 80.6825 4.09921
O 19.5324 81.3205 2.73541
O 21.7092 80.6825 1.37166
Si 14.1982 86.1799 0.00795251
Si 13.6404 82.9757 0.00789239
O 17.2603 83.9565 0.00787326
Si 17.3324 85.6009 0.00793782
Si 16.7102 82.4085 0.00785485
O 18.1963 85.9407 1.37175
O 15.842 86.3054 0.00798289
O 18.1962 85.9407 4.09921
O 17.3042 81.745 1.37158
O 15.0963 82.2644 0.00784703
O 17.3042 81.745 4.09924
O -22.7319 -82.6772 0.0134244
O -18.2205 -83.7923 2.74094
Si -18.8235 -85.3239 2.74095
Si -18.0935 -82.1545 2.74095
O -21.7611 -82.9393 2.74092
Si -21.9219 -84.5774 2.74094
Si -21.1285 -81.4232 2.74095
O -22.8027 -84.8702 4.10477
O -20.4716 -85.361 2.74095
O -22.8028 -84.8702 1.37712
O -21.6859 -80.7287 4.10471
O -19.5091 -81.366 2.74091
O -21.6859 -80.7287 1.37721
O -13.6546 -84.6605 0.0134076
Si -14.1743 -86.2223 0.0134053
Si -13.6166 -83.0182 0.0133916
O -17.2373 -84.001 0.0134012
Si -17.3089 -85.6454 0.0133933
Si -16.6869 -82.4532 0.0133953
O -18.1726 -85.9857 1.37712
O -15.8179 -86.3488 0.0134113
O -18.1726 -85.9857 4.10477
O -17.281 -81.79 1.37722
O -15.0731 -82.3081 0.0133822
O -17.2811 -81.79 4.1047
O -9.04963 -85.2829 2.74103
Si -9.48377 -86.8706 2.74101
Si -9.1 -83.6409 2.74099
O -12.6616 -84.8159 2.74096
Si -12.6446 -86.4618 2.74096
Si -12.196 -83.2404 2.74095
O -13.4887 -86.8481 4.10473
O -11.1183 -87.0847 2.74099
O -13.4886 -86.8481 1.37718
O -12.8251 -82.6103 4.10475
O -10.5922 -83.0093 2.741
O -12.8251 -82.6103 1.37714
Si -4.76485 -87.2643 0.013417
Si -4.55641 -84.0186 0.0133852
O -8.04964 -85.385 0.0134487
Si -7.94331 -87.0276 0.0134542
Si -7.66956 -83.7868 0.0134378
O -8.76537 -87.4587 1.37727
O -6.38541 -87.5667 0.0134467
O -8.7654 -87.4587 4.10476
O -8.33153 -83.1912 1.3772
O -6.08071 -83.4691 0.0134839
O -8.33149 -83.1912 4.10477
O 4.44023 85.6106 0.00789968
O -0.20606 85.7312 2.73547
Si 0.0541403 87.3565 2.73553
Si 0.0219777 84.1043 2.73547
O 3.43607 85.658 2.73543
Si 3.24092 87.2924 2.73552
Si 3.14319 84.0416 2.73545
O 4.0386 87.7675 4.09927
O 1.65602 87.7463 2.73555
O 4.03857 87.7675 1.37174
O 3.83658 83.483 4.09924
O 1.57385 83.6382 2.73549
O 3.83654 83.483 1.37164
O -4.85148 85.5989 0.00793449
Si -4.68007 87.236 0.00799536
Si -4.53601 83.9867 0.00793229
O -1.21148 85.7241 0.00790291
Si -1.49463 87.3456 0.0079742
Si -1.41596 84.094 0.00791321
O -0.723851 87.8632 1.37174
O -3.10186 87.7125 0.00802059
O -0.723885 87.8632 4.0993
O -0.693111 83.5739 1.37163
O -2.96104 83.6058 0.00796104
O -0.693159 83.5739 4.09928
O -9.48307 85.2154 2.73557
Si -9.40059 86.8594 2.73561
Si -9.08117 83.6225 2.73554
O -5.85558 85.5371 2.73549
Si -6.22584 87.1408 2.73555
Si -5.97151 83.8983 2.73549
O -5.48442 87.6996 4.09933
O -7.8505 87.4205 2.73562
O -5.48447 87.6996 1.37175
O -5.2215 83.4183 4.09928
O -7.48791 83.3272 2.73552
O -5.22155 83.4183 1.37167
Si -14.0943 86.2293 0.0081424
Si -13.6002 83.0147 0.00810028
O -10.4823 85.0999 0.00797572
Si -10.9391 86.6812 0.00805739
Si -10.5099 83.4573 0.0079788
O -10.2287 87.279 1.37182
O -12.5765 86.8729 0.00812607
O -10.2288 87.279 4.09938
O -9.73519 83.0182 1.37175
O -11.9934 82.8056 0.00800248
O -9.73519 83.0182 4.09931
O 4.87419 -85.6427 0.0136083
Si 4.55867 -84.0305 0.0135447
O 9.50589 -85.2586 2.74116
Si 9.42327 -86.9025 2.74114
Si 9.10308 -83.666 2.74115
O 5.87762 -85.5811 2.74106
Si 6.24846 -87.1848 2.7411
Si 5.99367 -83.9425 2.7411
O 5.50701 -87.7435 4.10489
O 7.87323 -87.464 2.74113
O 5.50702 -87.7435 1.37732
O 5.24409 -83.4622 4.10492
O 7.50986 -83.3711 2.74107
O 5.24407 -83.4622 1.37728
O 14.1096 -84.6229 0.0136552
Si 14.1162 -86.2688 0.0136261
Si 13.6209 -83.0545 0.0136369
O 10.5039 -85.1422 0.0135762
Si 10.9615 -86.7233 0.0135876
Si 10.531 -83.4996 0.0135935
O 10.2516 -87.3217 1.37734
O 12.599 -86.9136 0.0136059
O 10.2516 -87.3217 4.10494
O 9.75639 -83.061 1.37744
O 12.0139 -82.8467 0.0134853
O 9.75626 -83.061 4.10492
O 18.6715 -83.7387 2.74113
Si 18.7675 -85.3819 2.74115
Si 18.0988 -82.1989 2.74114
O 15.1001 -84.4524 2.74121
Si 15.6422 -86.0066 2.74118
Si 15.0377 -82.8108 2.74119
O 14.9659 -86.6426 4.10491
O 17.2876 -86.1081 2.74117
O 14.9658 -86.6426 1.37746
O 14.2404 -82.4148 4.10508
O 16.483 -82.0783 2.74103
O 14.2402 -82.4149 1.37742
Si 23.3645 -84.2459 0.0135464
O 19.6517 -83.5152 0.0136514
Si 20.2773 -85.0377 0.013597
Si 19.5006 -81.8794 0.0135867
O 19.6363 -85.7092 1.3774
O 21.9257 -85.0506 0.0135751
O 19.6363 -85.7092 4.10491
O 18.6831 -81.5269 1.37742
O 20.9044 -81.0703 0.0134646
O 18.683 -81.527 4.10494
O -23.1604 82.5745 0.00867452
Si -22.5054 81.0679 0.00864251
O -27.6011 81.2043 2.73711
Si -27.874 82.8275 2.73677
Si -26.8657 79.7353 2.73691
O -24.1273 82.2984 2.73595
Si -24.8339 83.785 2.73616
Si -23.8882 80.6732 2.73621
O -24.2297 84.4901 4.09985
O -26.4807 83.7088 2.7365
O -24.2299 84.4901 1.37235
O -23.0524 80.3656 4.09985
O -25.2463 79.7894 2.73696
O -23.0529 80.3654 1.37228
O -31.9614 79.5947 0.00855673
Si -32.3215 81.2008 0.00939247
Si -31.147 78.168 0.00897423
O -28.5516 80.8763 0.00911983
Si -29.338 82.3223 0.00922696
Si -28.2249 79.2663 0.00935822
O -28.7731 83.0591 1.373
O -30.9782 82.1565 0.00933152
O -28.773 83.0592 4.10061
O -27.3737 79.0043 1.37301
O -29.533 78.3101 0.0100984
O -27.3742 79.0041 4.10053
O -36.2272 77.7503 2.73744
Si -36.6739 79.3345 2.73736
Si -35.3368 76.3697 2.73748
O -32.8923 79.2154 2.73714
Si -33.7559 80.6166 2.737
Si -32.4787 77.6255 2.73658
O -33.2319 81.3831 4.10073
O -35.3846 80.3619 2.73712
O -33.2318 81.383 1.37323
O -31.6139 77.4106 4.09988
O -33.7329 76.5995 2.73794
O -31.6155 77.4101 1.37232
Si -40.9191 77.2363 0.00969331
O -37.1366 77.3208 0.0100022
Si -38.0744 78.6735 0.00981409
Si -36.6373 75.7557 0.00992467
O -37.5927 79.4672 1.37356
O -39.6871 78.3316 0.00973658
O -37.5926 79.4673 4.10126
O -35.7626 75.5879 1.37358
O -37.8343 74.6636 0.0103314
O -35.7632 75.5876 4.10106
O 31.9787 -79.6277 0.0133682
Si 31.1645 -78.2009 0.0133778
O 36.2444 -77.7844 2.74086
Si 36.6916 -79.3685 2.74088
Si 35.3542 -76.4037 2.74086
O 32.91 -79.2484 2.74098
Si 33.7735 -80.6498 2.74096
Si 32.496 -77.6587 2.74093
O 33.2497 -81.4162 4.10472
O 35.4023 -80.3957 2.74093
O 33.2497 -81.4162 1.37721
O 31.632 -77.4433 4.1047
O 33.7502 -76.6328 2.74097
O 31.6321 -77.4432 1.37712
O 40.4043 -75.7127 0.0132975
Si 40.9364 -77.2703 0.0133078
Si 39.4405 -74.3824 0.0133071
O 37.1535 -77.3555 0.013332
Si 38.0919 -78.7078 0.0133253
Si 36.6545 -75.7904 0.0133019
O 37.6104 -79.5014 1.37711
O 39.7045 -78.3658 0.0133332
O 37.6104 -79.5014 4.10463