2640
 Atoms. Timestep: 127340
O 2.06735 -5.77566 3.05737
Si 2.32598 -7.3945 3.15499
Si 1.16687 -4.41662 2.99238
O 5.37641 -4.70423 1.59118
Si 6.68349 -5.02986 0.615029
Si 4.59001 -3.4448 2.24282
O 2.81354 -5.37757 0.164671
Si 3.80487 -6.69251 0.353622
Si 2.27171 -3.82657 0.315692
O 3.24464 -7.48754 1.7353
O 5.45078 -6.24262 0.315864
O 3.2152 -7.47122 120.814
O 1.15638 -3.88068 1.48454
O 3.27562 -3.08421 1.32691
O 1.92257 -3.40378 120.643
O 5.82454 -2.99008 3.49827
Si 7.43987 -3.33864 3.35827
Si 4.81026 -2.56611 5.00913
O 7.4864 -4.32319 4.74353
O 8.04952 -1.74649 3.25651
O 7.50142 -4.32613 1.9713
O 4.90753 -1.85978 6.6685
O 4.15264 -1.42523 4.022
O 3.89087 -3.3936 3.789
O 2.09706 -5.67026 8.58191
Si 2.25067 -7.3138 8.68763
Si 1.32167 -4.22269 8.61064
O 5.50398 -3.72391 6.26961
Si 6.64164 -4.88563 6.10072
Si 4.48383 -3.24865 7.74321
O 2.64212 -5.52734 5.79424
Si 3.8106 -6.69564 5.92737
Si 2.17259 -3.95455 5.77865
O 3.20695 -7.47325 7.30148
O 5.441 -6.13779 5.99223
O 3.30987 -7.48892 4.52052
O 1.26168 -3.71187 7.08845
O 3.56782 -3.24932 6.15562
O 1.7483 -3.59066 4.27118
O 5.78397 -3.01438 9.01173
Si 7.37366 -3.40979 8.89212
Si 4.86161 -2.44664 10.4672
O 7.40768 -4.30184 10.3381
O 7.9478 -1.79874 8.75927
O 7.42109 -4.4248 7.53859
O 5.1739 -2.57507 12.0354
O 4.13612 -1.19121 9.72803
O 3.80962 -3.11582 9.2931
O 6.12915 0.181804 3.05865
Si 7.74877 -0.0726012 3.15551
Si 4.558 -0.253709 2.9936
O 6.13533 3.66092 1.59264
Si 6.84878 4.80297 0.615781
Si 4.69448 3.3023 2.24436
O 5.98182 1.01513 0.165614
Si 7.53894 1.55109 0.354237
Si 4.33932 0.979953 0.316949
O 8.12149 0.772391 1.73597
O 7.62037 3.25542 0.316379
O 8.09722 0.749542 120.814
O 4.04544 -0.0974258 1.48568
O 3.94447 2.16423 1.32847
O 3.82922 0.778806 120.644
O 4.64359 4.61726 3.49941
Si 5.47456 6.0456 3.359
Si 3.92671 3.78426 5.01051
O 6.42539 5.78543 4.74419
O 4.14884 7.11751 3.2571
O 6.4325 5.79859 1.97196
O 3.28564 4.09506 6.67019
O 2.63846 3.51121 4.02344
O 4.42948 2.65367 3.7907
O 6.03886 0.243878 8.58281
Si 7.64927 -0.118826 8.68814
Si 4.42236 -0.0453854 8.61161
O 5.24269 4.08549 6.27057
Si 6.69923 4.80814 6.10133
Si 4.47583 3.26215 7.74425
O 6.07158 0.806038 5.79484
Si 7.54408 1.55575 5.92784
Si 4.43069 0.846249 5.77947
O 8.09676 0.741235 7.30202
O 7.51822 3.2788 5.99263
O 8.14322 0.833869 4.52096
O 3.91804 0.0554038 7.08942
O 4.19224 2.39123 6.15668
O 3.95305 0.555262 4.27215
O 4.65481 4.57112 9.0126
Si 5.52207 5.96079 8.89276
Si 3.83039 3.86926 10.4683
O 6.38064 5.71706 10.3389
O 4.16721 7.00458 8.75985
O 6.50202 5.69193 7.53923
O 4.0489 4.12673 12.0365
O 2.41231 3.56706 9.72889
O 4.14195 2.66189 9.2943
O 1.72148 5.88712 3.0585
Si 2.46397 7.34877 3.15597
Si 1.65049 4.25832 2.99366
O -1.58543 6.96598 1.59248
Si -2.45124 7.99787 0.616206
Si -1.68988 5.48493 2.2445
O 0.883315 6.00372 0.165986
Si 0.85476 7.65025 0.35474
Si 0.409559 4.43058 0.317059
O 1.77541 7.96406 1.73635
O -0.741095 8.25405 0.317109
O 1.78955 7.93372 120.815
O 1.34358 3.81862 1.48589
O -0.838893 4.42037 1.32844
O 0.443731 3.88337 120.644
O -2.95579 5.8434 3.49991
Si -4.05745 7.07509 3.35945
Si -2.38463 4.90438 5.01114
O -3.5163 7.89915 4.74455
O -5.48668 6.1457 3.25734
O -3.52657 7.90984 1.97244
O -2.87791 4.39097 6.67103
O -2.52379 3.59446 4.02462
O -1.1546 5.0325 3.79074
O 1.63507 5.81981 8.58325
Si 2.47724 7.23955 8.68867
Si 1.4112 4.19297 8.61201
O -2.26451 6.24933 6.27097
Si -2.50217 7.85782 6.10163
Si -1.71799 5.26603 7.74474
O 1.11054 6.02481 5.79527
Si 0.852137 7.65685 5.92833
Si 0.5656 4.47652 5.77988
O 1.79748 7.93086 7.30256
O -0.79465 8.16443 5.99302
O 1.72371 8.00383 4.52146
O 1.15963 3.7446 7.08973
O -0.977469 4.72699 6.15717
O 0.69458 3.93249 4.27248
O -2.9082 5.84012 9.01282
Si -3.96211 7.09415 8.89296
Si -2.49573 4.83887 10.4683
O -3.46514 7.83525 10.3392
O -5.37346 6.12818 8.75983
O -3.40366 7.94322 7.53952
O -2.67332 5.12559 12.0367
O -2.64599 3.39718 9.7281
O -1.25063 4.7629 9.29488
O -5.06646 3.45726 3.05827
Si -6.22734 4.61482 3.1559
Si -3.53914 2.88699 2.99328
O -7.11353 0.644882 1.59155
Si -8.36278 0.140405 0.615731
Si -5.7373 0.0877527 2.24339
O -5.43622 2.69627 0.165885
Si -7.01113 3.17748 0.354611
Si -4.08626 1.75985 0.31673
O -7.02522 4.15006 1.73622
O -8.07833 1.84614 0.316893
O -6.99188 4.15401 120.815
O -3.21572 2.45936 1.48547
O -4.46203 0.56888 1.32758
O -3.55552 1.62293 120.643
O -6.46932 -1.00521 3.49904
Si -7.9812 -1.6723 3.35894
Si -5.39955 -0.751988 5.01002
O -8.59754 -0.903104 4.74417
O -7.53898 -3.31879 3.25685
O -8.61127 -0.909433 1.97203
O -5.06333 -1.38021 6.6696
O -4.19682 -1.28915 4.02341
O -5.14152 0.457316 3.78951
O -5.02901 3.354 8.58283
Si -6.11913 4.59354 8.68852
Si -3.55091 2.63851 8.61147
O -6.64146 -0.222686 6.27029
Si -8.24468 0.0484809 6.10131
Si -5.53698 -0.00723348 7.74393
O -5.38589 2.91833 5.79499
Si -7.01791 3.17676 5.92818
Si -4.08164 1.92181 5.77934
O -6.98657 4.16055 7.30238
O -8.00917 1.7672 5.99287
O -7.07892 4.11293 4.52137
O -3.20211 2.26065 7.08926
O -4.79607 0.531277 6.15634
O -3.52433 1.87689 4.27195
O -6.45086 -0.96139 9.01227
Si -7.96938 -1.57584 8.89266
Si -5.37072 -0.878874 10.4676
O -8.52098 -0.874158 10.3388
O -7.48702 -3.21668 8.75948
O -8.60439 -0.782447 7.53921
O -5.69832 -0.958905 12.0359
O -4.04607 -1.46772 9.7277
O -4.91342 0.281383 9.29385
O -4.85218 -3.75017 3.05821
Si -6.31196 -4.49636 3.15551
Si -3.83723 -2.47426 2.99334
O -2.81157 -6.56812 1.5922
Si -2.71772 -7.91151 0.615418
Si -1.85656 -5.43124 2.24409
O -4.24265 -4.33756 0.165679
Si -5.18746 -5.68637 0.354243
Si -2.93451 -3.3436 0.316902
O -6.11668 -5.39891 1.73587
O -4.25162 -7.11309 0.316321
O -6.11019 -5.36614 120.814
O -3.33041 -2.29925 1.48553
O -1.91881 -4.06963 1.32825
O -2.64 -2.88124 120.644
O -1.04283 -6.46542 3.49919
Si -0.875657 -8.10941 3.35855
Si -0.95263 -5.37024 5.01047
O -1.79793 -8.45794 4.74363
O 0.826902 -8.19762 3.25642
O -1.79585 -8.4725 1.97153
O -0.251872 -5.24501 6.67043
O -0.0703698 -4.39225 4.02378
O -2.0234 -4.75076 3.79043
O -4.74207 -3.7473 8.58282
Si -6.25816 -4.40035 8.68812
Si -3.60427 -2.56316 8.61142
O -1.84065 -6.38755 6.27017
Si -2.59406 -7.82839 6.10075
Si -1.70481 -5.2709 7.74392
O -4.43859 -4.2214 5.79463
Si -5.18914 -5.69348 5.9277
Si -3.08744 -3.28946 5.77915
O -6.11484 -5.35924 7.302
O -4.15552 -7.07234 5.99224
O -6.09822 -5.46159 4.5209
O -3.13725 -2.34834 7.08914
O -1.98663 -4.39941 6.15641
O -2.87216 -2.77323 4.27185
O -1.07963 -6.43495 9.01207
Si -0.964176 -8.06895 8.89216
Si -0.825268 -5.38249 10.4677
O -1.80195 -8.37615 10.3384
O 0.745403 -8.11709 8.75901
O -1.91504 -8.42747 7.53866
O -0.850046 -5.71885 12.036
O 0.14381 -4.30453 9.72748
O -1.78775 -4.58926 9.29406
O 2.06735 -5.77566 14.1332
Si 2.32598 -7.39451 14.2308
Si 1.16687 -4.41663 14.0682
O 5.37641 -4.70424 12.667
Si 6.68349 -5.02986 11.6908
Si 4.59001 -3.44481 13.3186
O 2.81354 -5.37757 11.2405
Si 3.80487 -6.69251 11.4294
Si 2.27171 -3.82658 11.3915
O 3.24464 -7.48755 12.8111
O 5.45078 -6.24262 11.3917
O 3.2152 -7.47122 10.0554
O 1.15638 -3.88069 12.5604
O 3.27562 -3.08422 12.4027
O 1.92258 -3.40379 9.88437
O 5.82453 -2.99009 14.5741
Si 7.43987 -3.33864 14.4341
Si 4.81026 -2.56612 16.085
O 7.48639 -4.3232 15.8194
O 8.04951 -1.7465 14.3323
O 7.50142 -4.32613 13.0471
O 4.90752 -1.85979 17.7443
O 4.15264 -1.42524 15.0978
O 3.89087 -3.39361 14.8648
O 2.09706 -5.67027 19.6577
Si 2.25067 -7.31381 19.7635
Si 1.32166 -4.2227 19.6865
O 5.50398 -3.72391 17.3454
Si 6.64164 -4.88564 17.1765
Si 4.48383 -3.24866 18.819
O 2.64211 -5.52735 16.8701
Si 3.8106 -6.69565 17.0032
Si 2.17258 -3.95456 16.8545
O 3.20695 -7.47326 18.3773
O 5.441 -6.13779 17.068
O 3.30987 -7.48893 15.5963
O 1.26168 -3.71189 18.1643
O 3.56782 -3.24933 17.2314
O 1.74829 -3.59067 15.347
O 5.78397 -3.01438 20.0875
Si 7.37365 -3.4098 19.9679
Si 4.8616 -2.44664 21.543
O 7.40768 -4.30184 21.4139
O 7.94779 -1.79874 19.8351
O 7.42109 -4.4248 18.6144
O 5.17389 -2.57507 23.1112
O 4.13611 -1.19121 20.8038
O 3.80962 -3.11582 20.3689
O 6.12914 0.181797 14.1345
Si 7.74876 -0.0726068 14.2313
Si 4.558 -0.253717 14.0694
O 6.13533 3.66091 12.6685
Si 6.84878 4.80297 11.6916
Si 4.69447 3.3023 13.3202
O 5.98182 1.01512 11.2414
Si 7.53894 1.55109 11.4301
Si 4.33933 0.979946 11.3928
O 8.12149 0.772385 12.8118
O 7.62037 3.25542 11.3922
O 8.09722 0.749537 10.0561
O 4.04544 -0.097433 12.5615
O 3.94447 2.16422 12.4043
O 3.82923 0.778798 9.8856
O 4.64359 4.61726 14.5752
Si 5.47456 6.0456 14.4348
Si 3.92671 3.78425 16.0863
O 6.42539 5.78542 15.82
O 4.14884 7.11751 14.3329
O 6.4325 5.79859 13.0478
O 3.28564 4.09506 17.746
O 2.63846 3.51121 15.0993
O 4.42947 2.65366 14.8665
O 6.03885 0.243878 19.6586
Si 7.64927 -0.11883 19.764
Si 4.42235 -0.0453835 19.6874
O 5.24269 4.08549 17.3464
Si 6.69923 4.80813 17.1771
Si 4.47582 3.26215 18.8201
O 6.07157 0.806035 16.8707
Si 7.54408 1.55575 17.0037
Si 4.43069 0.846248 16.8553
O 8.09675 0.741231 18.3778
O 7.51822 3.27879 17.0684
O 8.14322 0.833864 15.5968
O 3.91803 0.055405 18.1652
O 4.19224 2.39123 17.2325
O 3.95304 0.555258 15.348
O 4.65481 4.57112 20.0884
Si 5.52207 5.96078 19.9686
Si 3.83039 3.86925 21.5441
O 6.38065 5.71706 21.4147
O 4.16721 7.00458 19.8357
O 6.50202 5.69192 18.615
O 4.04891 4.12673 23.1124
O 2.41231 3.56706 20.8047
O 4.14196 2.66189 20.3701
O 1.72148 5.88711 14.1343
Si 2.46397 7.34876 14.2318
Si 1.65049 4.25832 14.0695
O -1.58543 6.96598 12.6683
Si -2.45124 7.99787 11.692
Si -1.68988 5.48493 13.3203
O 0.883312 6.00372 11.2418
Si 0.854759 7.65024 11.4306
Si 0.409556 4.43057 11.3929
O 1.7754 7.96406 12.8122
O -0.741095 8.25405 11.3929
O 1.78955 7.93372 10.0566
O 1.34358 3.81862 12.5617
O -0.838895 4.42037 12.4043
O 0.443725 3.88336 9.8857
O -2.95579 5.8434 14.5757
Si -4.05745 7.07509 14.4353
Si -2.38463 4.90438 16.087
O -3.51629 7.89915 15.8204
O -5.48667 6.1457 14.3332
O -3.52657 7.90984 13.0483
O -2.87791 4.39098 17.7469
O -2.52378 3.59446 15.1004
O -1.1546 5.0325 14.8666
O 1.63507 5.81981 19.6591
Si 2.47724 7.23955 19.7645
Si 1.41121 4.19297 19.6878
O -2.26451 6.24933 17.3468
Si -2.50217 7.85782 17.1774
Si -1.71798 5.26603 18.8206
O 1.11054 6.02481 16.8711
Si 0.852139 7.65685 17.0041
Si 0.565602 4.47652 16.8557
O 1.79748 7.93086 18.3784
O -0.794647 8.16443 17.0688
O 1.72371 8.00383 15.5973
O 1.15964 3.7446 18.1655
O -0.977466 4.72699 17.233
O 0.69458 3.93249 15.3483
O -2.9082 5.84012 20.0886
Si -3.96211 7.09415 19.9688
Si -2.49572 4.83887 21.5442
O -3.46514 7.83525 21.415
O -5.37346 6.12818 19.8356
O -3.40365 7.94322 18.6153
O -2.67332 5.12559 23.1125
O -2.64598 3.39719 20.8039
O -1.25063 4.7629 20.3707
O -5.06645 3.45726 14.1341
Si -6.22733 4.61482 14.2317
Si -3.53914 2.88699 14.0691
O -7.11353 0.644883 12.6674
Si -8.36277 0.140405 11.6915
Si -5.7373 0.087755 13.3192
O -5.43621 2.69628 11.2417
Si -7.01113 3.17748 11.4304
Si -4.08625 1.75985 11.3925
O -7.02522 4.15006 12.812
O -8.07833 1.84614 11.3927
O -6.99188 4.15401 10.0564
O -3.21571 2.45936 12.5613
O -4.46203 0.568882 12.4034
O -3.55552 1.62293 9.88533
O -6.46931 -1.00521 14.5749
Si -7.98119 -1.67231 14.4348
Si -5.39954 -0.751988 16.0858
O -8.59753 -0.903107 15.82
O -7.53897 -3.31879 14.3327
O -8.61126 -0.909435 13.0478
O -5.06332 -1.38021 17.7454
O -4.19682 -1.28915 15.0992
O -5.14151 0.457318 14.8653
O -5.02901 3.354 19.6586
Si -6.11913 4.59354 19.7643
Si -3.55091 2.63851 19.6873
O -6.64145 -0.222689 17.3461
Si -8.24467 0.0484778 17.1771
Si -5.53697 -0.00723638 18.8197
O -5.38588 2.91833 16.8708
Si -7.0179 3.17675 17.004
Si -4.08163 1.92181 16.8552
O -6.98656 4.16054 18.3782
O -8.00916 1.7672 17.0687
O -7.07891 4.11293 15.5972
O -3.2021 2.26065 18.1651
O -4.79606 0.531276 17.2322
O -3.52433 1.87689 15.3478
O -6.45085 -0.961394 20.0881
Si -7.96937 -1.57584 19.9685
Si -5.3707 -0.878881 21.5434
O -8.52097 -0.874161 21.4146
O -7.48701 -3.21668 19.8353
O -8.60438 -0.782451 18.615
O -5.6983 -0.958914 23.1117
O -4.04605 -1.46772 20.8035
O -4.9134 0.281378 20.3697
O -4.85217 -3.75018 14.134
Si -6.31195 -4.49636 14.2313
Si -3.83722 -2.47426 14.0692
O -2.81157 -6.56812 12.668
Si -2.71772 -7.91152 11.6912
Si -1.85655 -5.43124 13.3199
O -4.24264 -4.33756 11.2415
Si -5.18746 -5.68637 11.4301
Si -2.9345 -3.3436 11.3927
O -6.11668 -5.39891 12.8117
O -4.25162 -7.11309 11.3921
O -6.11019 -5.36614 10.0561
O -3.3304 -2.29925 12.5613
O -1.9188 -4.06964 12.4041
O -2.64 -2.88124 9.88549
O -1.04283 -6.46543 14.575
Si -0.875655 -8.10942 14.4344
Si -0.952624 -5.37025 16.0863
O -1.79793 -8.45795 15.8194
O 0.826904 -8.19763 14.3322
O -1.79585 -8.47251 13.0473
O -0.251866 -5.24502 17.7462
O -0.0703634 -4.39226 15.0996
O -2.02339 -4.75077 14.8662
O -4.74206 -3.74731 19.6586
Si -6.25815 -4.40036 19.7639
Si -3.60426 -2.56317 19.6872
O -1.84064 -6.38756 17.346
Si -2.59406 -7.8284 17.1766
Si -1.7048 -5.27091 18.8197
O -4.43858 -4.2214 16.8704
Si -5.18913 -5.69348 17.0035
Si -3.08743 -3.28946 16.855
O -6.11483 -5.35925 18.3778
O -4.15552 -7.07235 17.0681
O -6.09822 -5.4616 15.5967
O -3.13724 -2.34835 18.165
O -1.98663 -4.39943 17.2322
O -2.87215 -2.77323 15.3477
O -1.07963 -6.43496 20.0879
Si -0.964176 -8.06896 19.968
Si -0.825277 -5.38251 21.5435
O -1.80195 -8.37616 21.4142
O 0.745403 -8.11711 19.8348
O -1.91504 -8.42748 18.6145
O -0.850052 -5.71886 23.1119
O 0.143803 -4.30454 20.8033
O -1.78776 -4.58928 20.3699
O 2.06735 -5.77567 25.209
Si 2.32598 -7.39452 25.3066
Si 1.16687 -4.41663 25.144
O 5.37641 -4.70424 23.7428
Si 6.68349 -5.02987 22.7667
Si 4.59001 -3.44481 24.3944
O 2.81354 -5.37758 22.3163
Si 3.80487 -6.69252 22.5053
Si 2.27171 -3.82659 22.4673
O 3.24464 -7.48756 23.8869
O 5.45078 -6.24263 22.4675
O 3.2152 -7.47123 21.1313
O 1.15638 -3.8807 23.6362
O 3.27562 -3.08423 23.4785
O 1.92257 -3.4038 20.9602
O 5.82453 -2.99009 25.6499
Si 7.43986 -3.33865 25.5099
Si 4.81025 -2.56612 27.1608
O 7.48639 -4.3232 26.8952
O 8.04951 -1.7465 25.4081
O 7.50141 -4.32613 24.1229
O 4.90752 -1.85979 28.8201
O 4.15264 -1.42524 26.1736
O 3.89086 -3.39361 25.9406
O 2.09706 -5.67027 30.7336
Si 2.25067 -7.31381 30.8393
Si 1.32166 -4.2227 30.7623
O 5.50397 -3.72391 28.4212
Si 6.64164 -4.88564 28.2524
Si 4.48382 -3.24866 29.8948
O 2.64211 -5.52736 27.9459
Si 3.81059 -6.69566 28.079
Si 2.17258 -3.95456 27.9303
O 3.20695 -7.47326 29.4531
O 5.441 -6.1378 28.1439
O 3.30987 -7.48893 26.6722
O 1.26167 -3.71189 29.2401
O 3.56781 -3.24933 28.3073
O 1.74829 -3.59067 26.4228
O 5.78396 -3.01438 31.1634
Si 7.37365 -3.4098 31.0438
Si 4.8616 -2.44664 32.6188
O 7.40768 -4.30184 32.4897
O 7.94779 -1.79874 30.9109
O 7.42109 -4.4248 29.6902
O 5.17389 -2.57506 34.1871
O 4.13611 -1.19121 31.8797
O 3.80961 -3.11582 31.4447
O 6.12914 0.181794 25.2103
Si 7.74876 -0.0726096 25.3071
Si 4.55799 -0.253717 25.1452
O 6.13533 3.66091 23.7443
Si 6.84878 4.80297 22.7674
Si 4.69448 3.3023 24.396
O 5.98182 1.01512 22.3172
Si 7.53893 1.55109 22.5059
Si 4.33932 0.979946 22.4686
O 8.12149 0.772382 23.8876
O 7.62037 3.25542 22.468
O 8.09722 0.749534 21.1319
O 4.04544 -0.0974328 23.6373
O 3.94447 2.16423 23.4801
O 3.82922 0.778799 20.9614
O 4.64359 4.61726 25.651
Si 5.47456 6.0456 25.5106
Si 3.92671 3.78426 27.1621
O 6.42539 5.78542 26.8958
O 4.14884 7.11751 25.4087
O 6.4325 5.79859 24.1236
O 3.28564 4.09506 28.8218
O 2.63846 3.51121 26.1751
O 4.42947 2.65366 25.9423
O 6.03885 0.243878 30.7344
Si 7.64927 -0.118829 30.8398
Si 4.42235 -0.0453827 30.7632
O 5.24269 4.08549 28.4222
Si 6.69923 4.80814 28.253
Si 4.47583 3.26216 29.8959
O 6.07157 0.806036 27.9465
Si 7.54408 1.55575 28.0795
Si 4.43069 0.846251 27.9311
O 8.09675 0.741231 29.4537
O 7.51822 3.27879 28.1443
O 8.14322 0.833862 26.6726
O 3.91803 0.0554067 29.2411
O 4.19224 2.39123 28.3083
O 3.95304 0.555261 26.4238
O 4.65481 4.57112 31.1642
Si 5.52207 5.96079 31.0444
Si 3.83039 3.86926 32.6199
O 6.38065 5.71706 32.4905
O 4.16722 7.00458 30.9115
O 6.50202 5.69193 29.6909
O 4.04891 4.12673 34.1882
O 2.41231 3.56706 31.8805
O 4.14196 2.66189 31.4459
O 1.72148 5.88712 25.2101
Si 2.46397 7.34877 25.3076
Si 1.65049 4.25832 25.1453
O -1.58543 6.96598 23.7441
Si -2.45123 7.99787 22.7678
Si -1.68987 5.48493 24.3961
O 0.883314 6.00372 22.3176
Si 0.854761 7.65025 22.5064
Si 0.409558 4.43057 22.4687
O 1.77541 7.96406 23.888
O -0.741092 8.25405 22.4687
O 1.78955 7.93372 21.1324
O 1.34358 3.81862 23.6375
O -0.838892 4.42037 23.4801
O 0.443728 3.88336 20.9615
O -2.95578 5.84341 25.6515
Si -4.05745 7.07509 25.5111
Si -2.38463 4.90438 27.1628
O -3.51629 7.89915 26.8962
O -5.48667 6.14571 25.409
O -3.52657 7.90984 24.1241
O -2.87791 4.39098 28.8227
O -2.52378 3.59447 26.1763
O -1.1546 5.0325 25.9424
O 1.63507 5.81981 30.7349
Si 2.47725 7.23955 30.8403
Si 1.41121 4.19297 30.7636
O -2.26451 6.24934 28.4226
Si -2.50216 7.85782 28.2533
Si -1.71798 5.26603 29.8964
O 1.11054 6.02481 27.9469
Si 0.852142 7.65685 28.08
Si 0.565604 4.47653 27.9315
O 1.79748 7.93087 29.4542
O -0.794645 8.16443 28.1447
O 1.72372 8.00383 26.6731
O 1.15964 3.74461 29.2414
O -0.977464 4.72699 28.3088
O 0.694582 3.93249 26.4241
O -2.9082 5.84012 31.1645
Si -3.96211 7.09415 31.0446
Si -2.49572 4.83887 32.62
O -3.46514 7.83526 32.4909
O -5.37346 6.12818 30.9115
O -3.40365 7.94322 29.6912
O -2.67332 5.12559 34.1883
O -2.64598 3.39719 31.8797
O -1.25063 4.7629 31.4465
O -5.06645 3.45726 25.2099
Si -6.22733 4.61482 25.3075
Si -3.53914 2.88699 25.1449
O -7.11352 0.644878 23.7432
Si -8.36276 0.140402 22.7674
Si -5.73729 0.0877459 24.395
O -5.43621 2.69627 22.3175
Si -7.01112 3.17748 22.5062
Si -4.08625 1.75985 22.4684
O -7.02521 4.15006 23.8879
O -8.07832 1.84614 22.4685
O -6.99187 4.15401 21.1322
O -3.21571 2.45936 23.6371
O -4.46202 0.568878 23.4792
O -3.55551 1.62293 20.9611
O -6.46931 -1.00521 25.6507
Si -7.98119 -1.67231 25.5106
Si -5.39954 -0.751988 27.1617
O -8.59753 -0.903106 26.8958
O -7.53897 -3.31879 25.4085
O -8.61125 -0.909435 24.1237
O -5.06332 -1.38021 28.8212
O -4.19681 -1.28916 26.175
O -5.1415 0.457311 25.9411
O -5.02901 3.354 30.7345
Si -6.11913 4.59354 30.8401
Si -3.55091 2.63851 30.7631
O -6.64145 -0.222686 28.4219
Si -8.24467 0.04848 28.2529
Si -5.53697 -0.0072314 29.8956
O -5.38588 2.91833 27.9466
Si -7.0179 3.17676 28.0798
Si -4.08163 1.92181 27.931
O -6.98656 4.16055 29.454
O -8.00916 1.7672 28.1445
O -7.07891 4.11293 26.673
O -3.2021 2.26065 29.2409
O -4.79606 0.531279 28.308
O -3.52432 1.87689 26.4236
O -6.45086 -0.961392 31.1639
Si -7.96937 -1.57584 31.0443
Si -5.37071 -0.87888 32.6192
O -8.52097 -0.874159 32.4904
O -7.48701 -3.21668 30.9111
O -8.60438 -0.782448 29.6908
O -5.69831 -0.958914 34.1875
O -4.04606 -1.46772 31.8793
O -4.91341 0.281381 31.4455
O -4.85217 -3.75018 25.2098
Si -6.31195 -4.49637 25.3071
Si -3.83722 -2.47427 25.145
O -2.81157 -6.56813 23.7438
Si -2.71772 -7.91152 22.7671
Si -1.85655 -5.43125 24.3957
O -4.24264 -4.33757 22.3173
Si -5.18746 -5.68638 22.5059
Si -2.93449 -3.34361 22.4685
O -6.11668 -5.39892 23.8875
O -4.25162 -7.1131 22.468
O -6.11018 -5.36614 21.1319
O -3.3304 -2.29926 23.6372
O -1.9188 -4.06965 23.4799
O -2.63999 -2.88124 20.9613
O -1.04283 -6.46544 25.6508
Si -0.875656 -8.10942 25.5102
Si -0.952624 -5.37026 27.1621
O -1.79793 -8.45795 26.8953
O 0.826904 -8.19763 25.4081
O -1.79585 -8.47251 24.1232
O -0.251868 -5.24503 28.8221
O -0.0703643 -4.39227 26.1754
O -2.0234 -4.75077 25.9421
O -4.74207 -3.74731 30.7344
Si -6.25816 -4.40035 30.8397
Si -3.60427 -2.56317 30.7631
O -1.84064 -6.38757 28.4218
Si -2.59406 -7.8284 28.2524
Si -1.70481 -5.27091 29.8956
O -4.43858 -4.22141 27.9463
Si -5.18913 -5.69348 28.0793
Si -3.08743 -3.28947 27.9308
O -6.11484 -5.35925 29.4536
O -4.15552 -7.07235 28.1439
O -6.09822 -5.4616 26.6725
O -3.13724 -2.34835 29.2408
O -1.98663 -4.39943 28.308
O -2.87215 -2.77324 26.4235
O -1.07963 -6.43496 31.1637
Si -0.964179 -8.06896 31.0438
Si -0.825277 -5.3825 32.6193
O -1.80196 -8.37616 32.4901
O 0.7454 -8.11711 30.9107
O -1.91504 -8.42748 29.6903
O -0.850057 -5.71886 34.1877
O 0.143803 -4.30454 31.8791
O -1.78776 -4.58928 31.4457
O 2.06734 -5.77566 36.2848
Si 2.32597 -7.39451 36.3824
Si 1.16686 -4.41662 36.2198
O 5.37641 -4.70423 34.8186
Si 6.68349 -5.02986 33.8425
Si 4.59001 -3.4448 35.4703
O 2.81353 -5.37758 33.3921
Si 3.80487 -6.69251 33.5811
Si 2.2717 -3.82658 33.5431
O 3.24463 -7.48755 34.9628
O 5.45077 -6.24263 33.5433
O 3.2152 -7.47123 32.2071
O 1.15638 -3.88069 34.712
O 3.27562 -3.08422 34.5544
O 1.92257 -3.40379 32.036
O 5.82453 -2.99009 36.7257
Si 7.43986 -3.33864 36.5857
Si 4.81026 -2.56611 38.2366
O 7.48639 -4.3232 37.971
O 8.04951 -1.7465 36.484
O 7.50141 -4.32613 35.1987
O 4.90752 -1.85979 39.896
O 4.15264 -1.42524 37.2495
O 3.89087 -3.39361 37.0164
O 2.09706 -5.67026 41.8094
Si 2.25067 -7.3138 41.9151
Si 1.32167 -4.22268 41.8381
O 5.50398 -3.72391 39.4971
Si 6.64164 -4.88563 39.3282
Si 4.48383 -3.24865 40.9707
O 2.64211 -5.52735 39.0217
Si 3.81059 -6.69565 39.1548
Si 2.17258 -3.95455 39.0061
O 3.20695 -7.47325 40.5289
O 5.441 -6.13779 39.2197
O 3.30986 -7.48892 37.748
O 1.26168 -3.71188 40.3159
O 3.56782 -3.24932 39.3831
O 1.74829 -3.59066 37.4986
O 5.78397 -3.01438 42.2392
Si 7.37365 -3.40979 42.1196
Si 4.8616 -2.44664 43.6946
O 7.40768 -4.30184 43.5655
O 7.9478 -1.79874 41.9867
O 7.42109 -4.4248 40.766
O 5.17389 -2.57506 45.2629
O 4.13611 -1.19121 42.9555
O 3.80962 -3.11582 42.5205
O 6.12914 0.181799 36.2861
Si 7.74876 -0.0726057 36.383
Si 4.558 -0.253713 36.221
O 6.13533 3.66091 34.8201
Si 6.84878 4.80297 33.8432
Si 4.69448 3.3023 35.4718
O 5.98182 1.01512 33.3931
Si 7.53894 1.55109 33.5817
Si 4.33932 0.979949 33.5444
O 8.12149 0.772385 34.9634
O 7.62037 3.25542 33.5438
O 8.09722 0.749535 32.2077
O 4.04544 -0.0974299 34.7131
O 3.94447 2.16423 34.5559
O 3.82922 0.778801 32.0372
O 4.64359 4.61726 36.7269
Si 5.47456 6.0456 36.5864
Si 3.92671 3.78426 38.238
O 6.42539 5.78543 37.9716
O 4.14884 7.11751 36.4845
O 6.4325 5.79859 35.1994
O 3.28564 4.09506 39.8976
O 2.63846 3.51121 37.2509
O 4.42948 2.65367 37.0182
O 6.03885 0.243879 41.8103
Si 7.64927 -0.118826 41.9156
Si 4.42235 -0.0453836 41.8391
O 5.24269 4.08549 39.498
Si 6.69923 4.80814 39.3288
Si 4.47582 3.26216 40.9717
O 6.07157 0.806038 39.0223
Si 7.54408 1.55575 39.1553
Si 4.43069 0.846251 39.0069
O 8.09675 0.741234 40.5295
O 7.51822 3.2788 39.2201
O 8.14322 0.833866 37.7484
O 3.91804 0.055406 40.3169
O 4.19224 2.39123 39.3841
O 3.95304 0.555262 37.4996
O 4.65481 4.57112 42.24
Si 5.52207 5.96079 42.1202
Si 3.83039 3.86926 43.6957
O 6.38065 5.71707 43.5663
O 4.16721 7.00458 41.9873
O 6.50202 5.69193 40.7667
O 4.04891 4.12673 45.264
O 2.41231 3.56706 42.9563
O 4.14195 2.66189 42.5217
O 1.72148 5.88712 36.2859
Si 2.46397 7.34877 36.3834
Si 1.65049 4.25832 36.2211
O -1.58543 6.96599 34.8199
Si -2.45123 7.99788 33.8437
Si -1.68987 5.48494 35.472
O 0.883318 6.00372 33.3934
Si 0.854763 7.65025 33.5822
Si 0.40956 4.43058 33.5445
O 1.77541 7.96406 34.9638
O -0.741091 8.25405 33.5446
O 1.78956 7.93372 32.2082
O 1.34358 3.81862 34.7133
O -0.838889 4.42037 34.5559
O 0.443731 3.88337 32.0373
O -2.95578 5.84341 36.7274
Si -4.05745 7.07509 36.5869
Si -2.38463 4.90438 38.2386
O -3.51629 7.89915 37.972
O -5.48667 6.1457 36.4848
O -3.52657 7.90985 35.1999
O -2.87791 4.39098 39.8985
O -2.52378 3.59447 37.2521
O -1.1546 5.03251 37.0182
O 1.63507 5.81981 41.8107
Si 2.47724 7.23955 41.9161
Si 1.4112 4.19297 41.8395
O -2.26451 6.24933 39.4984
Si -2.50217 7.85782 39.3291
Si -1.71799 5.26603 40.9722
O 1.11054 6.02481 39.0227
Si 0.852139 7.65685 39.1558
Si 0.565602 4.47652 39.0073
O 1.79748 7.93086 40.53
O -0.794647 8.16443 39.2205
O 1.72371 8.00383 37.7489
O 1.15964 3.74461 40.3172
O -0.977467 4.72699 39.3846
O 0.694581 3.93249 37.4999
O -2.9082 5.84012 42.2403
Si -3.96211 7.09415 42.1204
Si -2.49573 4.83887 43.6958
O -3.46514 7.83525 43.5667
O -5.37346 6.12818 41.9873
O -3.40365 7.94322 40.767
O -2.67332 5.12559 45.2641
O -2.64599 3.39718 42.9556
O -1.25063 4.7629 42.5223
O -5.06645 3.45726 36.2857
Si -6.22733 4.61482 36.3834
Si -3.53914 2.88699 36.2207
O -7.11352 0.644878 34.819
Si -8.36277 0.140403 33.8432
Si -5.73729 0.0877448 35.4708
O -5.43621 2.69627 33.3933
Si -7.01112 3.17748 33.5821
Si -4.08625 1.75985 33.5442
O -7.02521 4.15006 34.9637
O -8.07832 1.84614 33.5443
O -6.99187 4.15401 32.208
O -3.21571 2.45935 34.7129
O -4.46203 0.568877 34.555
O -3.55551 1.62293 32.037
O -6.46932 -1.00521 36.7265
Si -7.9812 -1.67231 36.5864
Si -5.39955 -0.75199 38.2375
O -8.59754 -0.903104 37.9716
O -7.53898 -3.31879 36.4843
O -8.61126 -0.909433 35.1995
O -5.06333 -1.38021 39.8971
O -4.19682 -1.28916 37.2509
O -5.14151 0.457309 37.017
O -5.02901 3.354 41.8103
Si -6.11913 4.59354 41.916
Si -3.55091 2.63851 41.8389
O -6.64146 -0.222686 39.4977
Si -8.24468 0.0484812 39.3288
Si -5.53698 -0.0072317 40.9714
O -5.38589 2.91833 39.0224
Si -7.01791 3.17676 39.1556
Si -4.08164 1.92181 39.0068
O -6.98657 4.16055 40.5298
O -8.00917 1.7672 39.2203
O -7.07891 4.11293 37.7488
O -3.20211 2.26064 40.3167
O -4.79607 0.531276 39.3838
O -3.52433 1.87689 37.4994
O -6.45087 -0.961388 42.2397
Si -7.96938 -1.57583 42.1201
Si -5.37072 -0.878871 43.695
O -8.52098 -0.874155 43.5662
O -7.48702 -3.21668 41.9869
O -8.60439 -0.782445 40.7667
O -5.69832 -0.958903 45.2634
O -4.04607 -1.46771 42.9551
O -4.91342 0.281386 42.5213
O -4.85218 -3.75018 36.2857
Si -6.31196 -4.49636 36.383
Si -3.83723 -2.47427 36.2208
O -2.81158 -6.56813 34.8197
Si -2.71772 -7.91152 33.8429
Si -1.85656 -5.43124 35.4715
O -4.24265 -4.33756 33.3931
Si -5.18746 -5.68637 33.5817
Si -2.9345 -3.3436 33.5444
O -6.11668 -5.39892 34.9633
O -4.25163 -7.1131 33.5438
O -6.11019 -5.36614 32.2077
O -3.33041 -2.29925 34.713
O -1.91881 -4.06964 34.5557
O -2.64 -2.88124 32.0371
O -1.04284 -6.46543 36.7266
Si -0.875661 -8.10941 36.586
Si -0.952632 -5.37024 38.2379
O -1.79793 -8.45794 37.9711
O 0.826899 -8.19762 36.4839
O -1.79586 -8.4725 35.199
O -0.251875 -5.24501 39.8979
O -0.0703745 -4.39226 37.2512
O -2.02341 -4.75076 37.0179
O -4.74208 -3.7473 41.8103
Si -6.25817 -4.40035 41.9156
Si -3.60428 -2.56316 41.8389
O -1.84065 -6.38755 39.4976
Si -2.59406 -7.82839 39.3282
Si -1.70481 -5.2709 40.9714
O -4.43859 -4.2214 39.0221
Si -5.18914 -5.69348 39.1552
Si -3.08744 -3.28946 39.0066
O -6.11484 -5.35924 40.5294
O -4.15552 -7.07234 39.2197
O -6.09823 -5.4616 37.7484
O -3.13726 -2.34834 40.3166
O -1.98664 -4.39942 39.3839
O -2.87216 -2.77323 37.4993
O -1.07963 -6.43495 42.2395
Si -0.964181 -8.06895 42.1196
Si -0.825274 -5.38249 43.6952
O -1.80196 -8.37615 43.5659
O 0.745398 -8.11709 41.9865
O -1.91504 -8.42747 40.7661
O -0.850053 -5.71884 45.2635
O 0.143808 -4.30452 42.9549
O -1.78776 -4.58926 42.5215
O 2.06734 -5.77565 47.3606
Si 2.32597 -7.3945 47.4583
Si 1.16687 -4.41662 47.2956
O 5.37641 -4.70423 45.8944
Si 6.68349 -5.02986 44.9183
Si 4.59001 -3.4448 46.5461
O 2.81354 -5.37756 44.4679
Si 3.80487 -6.6925 44.6569
Si 2.27171 -3.82657 44.619
O 3.24463 -7.48754 46.0386
O 5.45078 -6.24262 44.6191
O 3.2152 -7.47122 43.2829
O 1.15638 -3.88068 45.7878
O 3.27562 -3.08421 45.6302
O 1.92257 -3.40378 43.1118
O 5.82453 -2.99008 47.8015
Si 7.43987 -3.33864 47.6615
Si 4.81026 -2.56611 49.3124
O 7.4864 -4.32319 49.0468
O 8.04952 -1.74649 47.5598
O 7.50142 -4.32613 46.2746
O 4.90753 -1.85978 50.9718
O 4.15264 -1.42523 48.3253
O 3.89087 -3.3936 48.0923
O 2.09706 -5.67026 52.8852
Si 2.25067 -7.3138 52.9909
Si 1.32167 -4.22268 52.9139
O 5.50398 -3.72391 50.5729
Si 6.64164 -4.88563 50.404
Si 4.48383 -3.24865 52.0465
O 2.64211 -5.52734 50.0975
Si 3.8106 -6.69564 50.2306
Si 2.17259 -3.95455 50.0819
O 3.20695 -7.47325 51.6048
O 5.441 -6.13779 50.2955
O 3.30987 -7.48892 48.8238
O 1.26168 -3.71187 51.3917
O 3.56782 -3.24932 50.4589
O 1.74829 -3.59066 48.5744
O 5.78397 -3.01438 53.315
Si 7.37365 -3.40979 53.1954
Si 4.8616 -2.44664 54.7704
O 7.40768 -4.30184 54.6414
O 7.9478 -1.79873 53.0625
O 7.42109 -4.4248 51.8419
O 5.17389 -2.57506 56.3387
O 4.13612 -1.19121 54.0313
O 3.80962 -3.11582 53.5964
O 6.12915 0.181803 47.3619
Si 7.74877 -0.0726016 47.4588
Si 4.558 -0.253711 47.2969
O 6.13533 3.66091 45.8959
Si 6.84878 4.80297 44.919
Si 4.69448 3.3023 46.5476
O 5.98182 1.01512 44.4689
Si 7.53894 1.55109 44.6575
Si 4.33933 0.979949 44.6202
O 8.12149 0.77239 46.0392
O 7.62037 3.25542 44.6196
O 8.09722 0.749539 43.2835
O 4.04544 -0.0974297 45.7889
O 3.94447 2.16423 45.6317
O 3.82923 0.778802 43.113
O 4.64359 4.61726 47.8027
Si 5.47456 6.0456 47.6623
Si 3.92671 3.78425 49.3138
O 6.42539 5.78543 49.0474
O 4.14884 7.11751 47.5604
O 6.4325 5.79859 46.2752
O 3.28564 4.09506 50.9735
O 2.63846 3.51121 48.3267
O 4.42948 2.65366 48.094
O 6.03885 0.243881 52.8861
Si 7.64927 -0.118825 52.9914
Si 4.42235 -0.0453821 52.9149
O 5.24269 4.08549 50.5738
Si 6.69923 4.80814 50.4046
Si 4.47582 3.26216 52.0475
O 6.07158 0.806038 50.0981
Si 7.54408 1.55575 50.2311
Si 4.43069 0.846249 50.0827
O 8.09675 0.741236 51.6053
O 7.51822 3.2788 50.2959
O 8.14322 0.833869 48.8242
O 3.91804 0.0554056 51.3927
O 4.19224 2.39123 50.4599
O 3.95304 0.55526 48.5754
O 4.65481 4.57112 53.3159
Si 5.52207 5.96079 53.196
Si 3.83039 3.86926 54.7715
O 6.38064 5.71706 54.6422
O 4.16721 7.00458 53.0631
O 6.50201 5.69193 51.8425
O 4.0489 4.12673 56.3398
O 2.41231 3.56706 54.0322
O 4.14195 2.66189 53.5976
O 1.72148 5.88712 47.3618
Si 2.46397 7.34876 47.4592
Si 1.65049 4.25832 47.2969
O -1.58543 6.96598 45.8957
Si -2.45124 7.99787 44.9195
Si -1.68988 5.48493 46.5478
O 0.883312 6.00372 44.4692
Si 0.854759 7.65025 44.658
Si 0.409555 4.43058 44.6203
O 1.7754 7.96406 46.0396
O -0.741095 8.25405 44.6204
O 1.78955 7.93372 43.284
O 1.34358 3.81862 45.7892
O -0.838896 4.42037 45.6317
O 0.443726 3.88337 43.1131
O -2.95579 5.84341 47.8032
Si -4.05745 7.0751 47.6627
Si -2.38463 4.90439 49.3144
O -3.5163 7.89915 49.0478
O -5.48668 6.14571 47.5606
O -3.52658 7.90985 46.2757
O -2.87792 4.39098 50.9743
O -2.52379 3.59447 48.3279
O -1.15461 5.0325 48.094
O 1.63507 5.81981 52.8865
Si 2.47724 7.23955 52.9919
Si 1.4112 4.19297 52.9153
O -2.26451 6.24934 50.5742
Si -2.50217 7.85782 50.4049
Si -1.71799 5.26603 52.048
O 1.11054 6.02481 50.0985
Si 0.852137 7.65685 50.2316
Si 0.565596 4.47653 50.0831
O 1.79748 7.93087 51.6058
O -0.79465 8.16443 50.2963
O 1.72371 8.00383 48.8247
O 1.15963 3.74461 51.393
O -0.977472 4.727 50.4604
O 0.694576 3.93249 48.5757
O -2.9082 5.84013 53.3161
Si -3.96211 7.09416 53.1962
Si -2.49572 4.83888 54.7716
O -3.46514 7.83526 54.6425