2880
 Atoms. Timestep: 48441
O 17.1213 3.04062 2.00622
Si 18.6743 3.42618 2.38018
Si 15.52 3.06201 2.29566
O 16.879 0.520462 4.32813
Si 18.492 0.571273 3.95704
Si 15.2538 0.684116 4.14431
O 19.0336 0.655924 5.53722
O 10.3755 15.9172 2.96279
O 8.88522 -14.8362 2.70677
O 14.7479 1.1515 5.61036
O 8.32406 12.7166 3.44421
O 6.37633 -11.5435 2.95999
O 16.7919 6.244 -2.7083
Si 18.3768 6.53414 -2.38773
Si 15.1713 6.31421 -2.47038
O 17.0477 3.93804 -0.40447
Si 18.6483 3.73977 -0.77295
Si 15.4144 3.96239 -0.592309
O 19.1949 3.60299 0.801497
O 7.93073 17.0067 -1.83649
O 11.5517 -12.9401 -2.01935
O 14.8871 3.55312 0.88654
O 7.21619 12.9109 -1.99978
O 9.2664 -9.48879 -2.27247
O 16.5486 8.03066 1.81346
Si 17.7794 9.03961 2.22576
Si 14.9934 7.60982 2.00104
O 16.8058 6.14821 4.24334
Si 18.4052 6.32871 3.90565
Si 15.3132 5.48574 4.08383
O 18.9196 6.50413 5.48572
O 4.78926 17.6456 2.90846
O 13.4118 -11.1856 2.87792
O 14.6556 5.8094 5.52875
O 3.73385 13.6504 3.21331
O 10.097 -8.70669 3.13227
O 13.7406 12.19 -2.38121
Si 16.7954 11.932 -2.60142
Si 14.1191 10.6416 -2.77569
O 16.1647 9.30616 -0.571917
Si 17.7845 9.39237 -0.913125
Si 14.6288 8.74944 -0.745752
O 18.294 9.39031 0.677363
O 2.19818 17.8654 -1.96262
O 15.4576 -8.63043 -1.84874
O 14.2417 8.03143 0.644021
O 2.60575 13.7413 -2.20458
O 12.3141 -5.93661 -2.09922
O 12.6558 12.2507 2.23973
Si 13.9178 13.3342 2.08777
Si 11.7216 10.8824 2.27551
O 14.789 10.913 3.68122
Si 16.2729 11.6244 3.66925
Si 13.8359 9.62251 3.93276
O 16.8639 12.1241 5.16724
O -1.04706 17.6574 2.75537
O 16.767 -6.43285 3.04662
O 13.5425 9.78258 5.48146
O -0.931046 13.5197 3.01849
O 12.898 -4.96496 3.31064
O 11.3836 13.3916 -2.82465
Si 11.7467 14.9845 -2.60735
Si 10.5115 12.0488 -2.52187
O 13.1268 12.2028 -0.448058
Si 14.1247 13.3541 -1.20909
Si 12.3896 10.7258 -0.583424
O 14.2693 13.6701 0.476975
O -3.56514 17.1427 -2.13487
O 18.0286 -3.41446 -1.68209
O 11.7091 10.3224 0.787325
O -2.05076 13.2891 -2.38776
O 14.2655 -1.68449 -1.9147
O 8.11137 14.8035 1.81555
Si 8.91935 16.1872 2.15402
Si 7.57902 13.3008 2.14467
O 10.8874 13.4606 3.99419
Si 11.5507 14.9337 3.67343
Si 9.74384 12.2817 4.02739
O 11.8764 15.4257 5.23907
O -6.64336 16.05 2.58904
O 18.665 -0.927648 3.19869
O 9.75042 11.7351 5.54618
O -5.39198 12.1046 2.844
O 14.5775 -0.622468 3.50802
O 6.47922 15.312 -2.92109
Si 6.43493 16.9314 -2.61303
Si 6.03245 13.7581 -2.68217
O 8.4296 14.6955 -0.667964
Si 9.1214 16.1481 -1.01104
Si 8.25562 13.0706 -0.780339
O 9.23293 16.6576 0.579404
O -8.9155 14.8702 -2.30678
O 19.0233 2.31306 -1.58568
O 7.77873 12.6126 0.695688
O -6.40668 11.5775 -2.55997
O 15.0221 2.96814 -1.79895
O 3.36332 15.739 1.78498
Si 3.35705 17.3567 2.06106
Si 2.86577 14.1905 1.97209
O 5.49448 15.4966 4.04085
Si 6.136 16.9811 3.68632
Si 5.17317 13.8949 3.87774
O 6.38251 17.4748 5.26316
O -11.582 12.9741 2.41937
O 18.9176 4.88302 3.19818
O 5.45235 13.2695 5.34316
O -9.29672 9.52284 2.67247
O 15.2954 3.96571 3.60765
O 1.25632 15.8727 -3.08988
Si 0.775176 17.4139 -2.75607
Si 1.24259 14.2528 -2.88033
O 3.30098 15.7494 -0.805226
Si 3.55361 17.3454 -1.10374
Si 3.55332 14.1379 -0.967041
O 3.49648 17.8766 0.479455
O -13.4422 11.2197 -2.4778
O 18.4577 8.06126 -1.68981
O 3.16349 13.5813 0.502061
O -10.1273 8.74065 -2.73218
O 14.6363 7.74961 -2.01003
O -1.88301 15.4182 1.60801
Si -2.3295 16.9731 1.89494
Si -1.92577 13.789 1.78415
O 0.140662 15.8063 3.89595
Si 0.425658 17.3924 3.54736
Si 0.357034 14.2011 3.69005
O 0.567036 17.9321 5.12242
O -15.4879 8.6645 2.24886
O 17.3319 10.493 2.97472
O 0.837555 13.649 5.13008
O -12.3445 5.97067 2.49924
O 14.5566 8.32737 3.37659
O -3.9357 14.9662 -3.26598
Si -4.81376 16.3193 -2.9253
Si -3.50468 13.4048 -3.05652
O -1.922 15.411 -0.980695
Si -2.12147 17.016 -1.26952
Si -1.24198 13.9297 -1.15462
O -2.33169 17.5104 0.312686
O -16.7974 6.46697 -2.64658
O 15.7461 13.0036 -1.76018
O -1.46665 13.2876 0.314674
O -12.9284 4.99903 -2.91065
O 13.6876 9.97464 -1.31717
O -6.83082 13.6698 1.43598
Si -7.68662 15.0424 1.72406
Si -6.4243 12.0916 1.61138
O -4.9836 14.5949 3.72115
Si -5.1537 16.1984 3.3786
Si -4.33545 13.1105 3.51206
O -5.16105 16.7581 4.95315
O -18.0591 3.4486 2.08208
O 12.9748 14.5548 2.82693
O -3.72651 12.7118 4.95418
O -14.296 1.71863 2.31469
O 10.3281 11.2163 2.97976
O -8.67854 12.675 -3.43789
Si -9.89265 13.7365 -3.096
Si -7.83697 11.2911 -3.22822
O -6.86116 13.6545 -1.15197
Si -7.49261 15.1437 -1.44024
Si -5.80316 12.4148 -1.3271
O -7.83264 15.5603 0.141946
O -18.6955 0.961737 -2.79876
O 10.6031 15.903 -1.77757
O -5.84462 11.7353 0.142061
O -14.608 0.656537 -3.10802
O 9.58724 12.3359 -1.24249
O -11.1092 10.6348 1.26467
Si -12.3085 11.7201 1.55291
Si -10.2861 9.22808 1.43977
O -9.58612 12.0292 3.54981
Si -10.1897 13.5247 3.20815
Si -8.55568 10.7794 3.34056
O -10.3482 14.0623 4.78247
O -19.0538 -2.27898 1.98568
O 7.6352 16.993 2.90764
O -7.861 10.5631 4.78284
O -15.0526 -2.93404 2.19891
O 6.07409 13.3078 2.68227
O -12.6131 9.17502 -3.61038
Si -14.072 9.86168 -3.26696
Si -11.4247 8.07457 -3.40114
O -11.1336 10.6125 -1.32325
Si -12.1482 11.8723 -1.61131
Si -9.77637 9.71015 -1.49839
O -12.5899 12.1792 -0.0290814
O -18.9482 -4.84898 -2.79816
O 5.08036 17.5049 -1.79459
O -9.63071 9.04461 -0.0294925
O -15.326 -3.93173 -3.20763
O 5.02275 13.7301 -1.43052
O -14.3905 6.54651 1.09278
Si -15.8421 7.25957 1.38211
Si -13.2147 5.41761 1.26531
O -13.3103 8.30135 3.37791
Si -14.2997 9.57533 3.0374
Si -11.9767 7.38196 3.16861
O -14.5994 10.0496 4.61143
O -18.4882 -8.02724 2.0898
O 1.86404 17.747 2.74126
O -11.2492 7.36566 4.61084
O -14.6668 -7.7156 2.41004
O 1.35202 14.0131 2.43966
O -15.4407 4.73278 52.9302
Si -17.0316 4.98806 -3.43541
Si -13.9934 4.0045 -3.58244
O -14.41 6.51625 -1.49591
Si -15.731 7.45018 -1.78204
Si -12.857 6.02274 -1.67253
O -16.2392 7.62426 -0.199632
O -17.3625 -10.4591 -2.57471
O -0.689374 17.5904 -1.94393
O -12.5342 5.42136 -0.204136
O -14.587 -8.29348 -2.97659
O 0.279659 13.9326 -1.63107
O -16.4248 1.70578 0.915982
Si -18.0139 1.99782 1.22142
Si -14.9793 0.947907 1.07851
O -15.8691 3.69101 3.20151
Si -17.1673 4.65133 2.86902
Si -14.3341 3.17493 2.98957
O -17.588 5.02424 4.44216
O -15.7767 -12.9697 2.1602
O -3.87424 16.9366 2.56745
O -13.6303 3.36491 4.43171
O -13.7182 -9.94066 1.7172
O -3.32535 13.1926 2.26187
O -16.9095 -0.486546 52.7892
Si -18.5225 -0.537237 -3.55705
Si -15.2843 -0.650095 52.9731
O -16.4332 1.70228 -1.64132
Si -17.9619 2.21592 -1.94145
Si -14.8123 1.64242 -1.85485
O -18.5005 2.23904 -0.359395
O -13.0053 -14.5208 -2.42693
O -6.27026 16.0884 -2.11138
O -14.3297 1.14172 -0.392144
O -10.3586 -11.1824 -2.57963
O -4.34053 12.8321 -1.80605
O -17.0783 -3.90399 0.804464
Si -18.6789 -3.70572 1.17297
Si -15.445 -3.92836 0.992346
O -17.0313 -1.36789 3.09636
Si -18.552 -0.855768 2.74264
Si -15.4325 -1.50211 2.81097
O -19.0641 -0.621856 4.31567
O -10.6336 -15.869 2.17758
O -9.16281 14.5841 2.39451
O -14.7784 -1.11742 4.24252
O -9.61758 -12.3019 1.64248
O -7.60639 11.1344 2.09027
O -16.8364 -6.11419 52.8741
Si -18.4358 -6.29468 -3.50565
Si -15.3438 -5.45175 53.0336
O -17.1519 -3.00654 -1.60626
Si -18.7049 -3.39213 -1.98017
Si -15.5506 -3.02802 -1.89566
O -19.2255 -3.56897 -0.401483
O -7.66566 -16.959 -2.50772
O -11.2302 13.1157 -2.2815
O -14.9177 -3.51907 -0.486498
O -6.1046 -13.2737 -2.28239
O -8.48416 10.5125 -1.97713
O -16.1953 -9.2722 0.97192
Si -17.815 -9.35833 1.31311
Si -14.6594 -8.71547 1.14576
O -16.8225 -6.21004 3.10837
Si -18.4074 -6.5001 2.78776
Si -15.2018 -6.28021 2.87039
O -18.9502 -6.47004 4.36719
O -5.11069 -17.4709 2.19456
O -13.6027 10.8748 2.22276
O -14.6862 -5.77538 4.32414
O -5.05306 -13.6962 1.83045
O -11.1613 7.98386 1.91824
O -14.8195 -10.8791 -3.28113
Si -16.3035 -11.5905 -3.26925
Si -13.8664 -9.58867 -3.53273
O -16.5791 -7.9967 -1.41362
Si -17.8099 -9.00563 -1.82579
Si -15.0239 -7.57589 -1.60107
O -18.3245 -9.35629 -0.277389
O -1.89444 -17.713 -2.34124
O -15.1883 8.8975 -2.45256
O -14.2722 -7.99748 -0.244025
O -1.3824 -13.9792 -2.03962
O -11.8354 7.15046 -2.1491
O -13.1573 -12.1689 0.848127
Si -14.1553 -13.3202 1.60908
Si -12.4202 -10.6918 0.98349
O -13.7712 -12.1561 2.78123
Si -16.826 -11.8981 3.00142
Si -14.1497 -10.6076 3.17568
O -16.8945 -12.0902 4.68563
O 0.659049 -17.5565 2.34396
O -16.8537 6.09132 2.05295
O -13.5731 -9.74869 4.37146
O -0.309959 -13.8987 2.03114
O -13.7185 3.98105 1.7398
O -10.9179 -13.4266 -3.59427
Si -11.5812 -14.8997 -3.27345
Si -9.77438 -12.2478 -3.62738
O -12.6863 -12.2168 -1.83956
Si -13.9483 -13.3003 -1.68777
Si -11.7521 -10.8485 -1.87543
O -14.2998 -13.6362 -0.0769654
O 3.84397 -16.9027 -2.16736
O -17.8412 3.75357 -2.62141
O -11.7396 -10.2885 -0.387268
O 3.295 -13.1587 -1.86177
O -14.1375 3.00733 -2.32744
O -8.46006 -14.6615 1.06792
Si -9.15184 -16.1141 1.41105
Si -8.28602 -13.0367 1.18032
O -11.414 -13.3576 3.22464
Si -11.7772 -14.9505 3.00733
Si -10.5419 -12.0148 2.92184
O -11.9069 -15.3917 4.61382
O 6.23999 -16.0545 2.51146
O -18.6623 0.602316 1.90723
O -9.78092 -11.7011 4.30674
O 4.3102 -12.7982 2.20614
O -15.0657 -0.572535 1.55228
O -5.52483 -15.4625 -3.64078
Si -6.16637 -16.9471 -3.28632
Si -5.20355 -13.8608 -3.47775
O -8.14164 -14.7697 -1.41563
Si -8.94984 -16.1533 -1.75402
Si -7.6095 -13.2669 -1.74472
O -9.26338 -16.6237 -0.179386
O 9.13252 -14.5501 -1.99454
O -19.0462 -1.92381 -2.74974
O -7.8092 -12.5786 -0.29575
O 7.57604 -11.1003 -1.69028
O -15.0156 -1.65015 -2.50999
O -3.33124 -15.7154 1.20527
Si -3.58393 -17.3115 1.50373
Si -3.5836 -14.104 1.36703
O -6.50944 -15.278 3.32108
Si -6.46526 -16.8974 3.01297
Si -6.06277 -13.7241 3.08213
O -6.41286 -17.4407 4.58972
O 11.1999 -13.0816 2.68148
O -18.9997 -5.17346 1.93688
O -5.48268 -13.2354 4.50971
O 8.45383 -10.4784 2.37711
O -14.9231 -5.31422 1.61218
O -0.171087 -15.7724 -3.49594
Si -0.456036 -17.3585 -3.14733
Si -0.3874 -14.1672 -3.29
O -3.39369 -15.705 -1.38494
Si -3.38742 -17.3227 -1.66105
Si -2.89617 -14.1565 -1.57209
O -3.52681 -17.8426 -0.0794585
O 13.5724 -10.8408 -1.82272
O -18.5935 -7.76396 -2.68061
O -3.19381 -13.5474 -0.102055
O 11.131 -7.94982 -1.51822
O -14.7996 -6.17053 -2.34771
O 1.89173 -15.3771 1.38076
Si 2.09118 -16.9822 1.66959
Si 1.2117 -13.8959 1.5547
O -1.28675 -15.8388 3.48986
Si -0.805514 -17.38 3.15609
Si -1.27293 -14.2189 3.28038
O -0.597378 -17.8982 4.7305
O 15.158 -8.8634 2.85266
O -17.8173 -10.828 2.14456
O -0.867946 -13.6151 4.72286
O 11.8051 -7.11644 2.54915
O -15.731 -10.7358 3.25168
O 4.95335 -14.5608 -3.32096
Si 5.12342 -16.1645 -2.97852
Si 4.30513 -13.0765 -3.11194
O 1.85266 -15.3843 -1.20793
Si 2.29916 -16.9392 -1.49488
Si 1.8954 -13.7551 -1.38411
O 2.30138 -17.4766 0.0873734
O 16.8232 -6.05717 -1.65298
O -15.398 -12.7875 -2.42102
O 1.43631 -13.2537 0.0854057
O 13.6881 -3.94694 -1.3398
O -12.4899 -9.76261 -2.76643
O 6.83085 -13.6205 1.55205
Si 7.46229 -15.1097 1.84028
Si 5.77282 -12.3808 1.72713
O 3.90547 -14.9323 3.66609
Si 4.78347 -16.2854 3.32534
Si 3.47439 -13.3709 3.45664
O 5.13074 -16.7241 4.89983
O 17.8108 -3.71944 3.02137
O -13.2279 -14.5878 2.23227
O 3.69619 -12.6779 4.89881
O 14.107 -2.97324 2.72743
O -11.4218 -10.8561 2.23945
O 9.55585 -11.9951 -3.14978
Si 10.1594 -13.4907 -2.80814
Si 8.52538 -10.7454 -2.94056
O 6.80065 -13.6357 -1.03586
Si 7.65635 -15.0084 -1.32402
Si 6.39401 -12.0576 -1.21133
O 7.80235 -15.5263 0.258088
O 18.6317 -0.568211 -1.50722
O -10.406 -15.8832 -2.56281
O 5.81428 -11.7013 0.257988
O 15.0353 0.606666 -1.1523
O -8.35461 -12.6828 -3.04428
O 11.1033 -10.5784 1.72328
Si 12.118 -11.8382 2.01135
Si 9.74608 -9.67611 1.89843
O 8.64813 -12.641 3.83779
Si 9.86233 -13.7024 3.496
Si 7.80663 -11.2571 3.62819
O 10.3179 -14.0282 5.07044
O 19.0157 1.95787 3.14975
O -7.96109 -16.9727 2.23647
O 7.83073 -10.5291 5.07004
O 14.9851 1.68409 2.90994
O -7.24651 -12.8769 2.39971
O 13.28 -8.26734 -2.97787
Si 14.2694 -9.54127 -2.63731
Si 11.9464 -7.34791 -2.76856
O 11.0789 -10.6007 -0.864667
Si 12.2782 -11.6861 -1.15288
Si 10.2558 -9.19402 -1.03975
O 12.5596 -12.1451 0.429143
O 18.9691 5.20752 -1.53683
O -4.81963 -17.6116 -2.50846
O 9.60039 -9.01057 0.42952
O 14.8924 5.34823 -1.21217
O -3.76422 -13.6164 -2.81329
O 14.3796 -6.48223 1.89589
Si 15.7007 -7.41609 2.18206
Si 12.8266 -5.9887 2.07255
O 12.5829 -9.14093 4.01044
Si 14.0418 -9.82758 3.66703
Si 11.3944 -8.04056 3.80118
O 14.5691 -10.0155 5.24155
O 18.563 7.79798 3.08061
O -2.2285 -17.8314 2.36262
O 11.2188 -7.33164 5.24209
O 14.7691 6.20447 2.74769
O -2.63608 -13.7074 2.6046
O 15.8387 -3.65686 -2.80149
Si 17.1368 -4.61718 -2.46903
Si 14.3037 -3.1408 -2.58958
O 14.3601 -6.51246 -0.692774
Si 15.8117 -7.22544 -0.982081
Si 13.1843 -5.38351 -0.86526
O 16.2088 -7.5901 0.599653
O 17.7867 10.8621 -1.74456
O 1.0167 -17.6235 -2.35535
O 12.5039 -5.38728 0.604183
O 15.7004 10.7698 -2.85175
O 0.900689 -13.4858 -2.61845
O 16.4027 -1.66817 2.04134
Si 17.9314 -2.18181 2.34141
Si 14.7818 -1.60833 2.25483
O 15.4103 -4.69863 4.18718
Si 17.0011 -4.95392 3.83541
Si 13.9629 -3.9704 3.98243
O 17.5576 -4.99007 5.41075
O 15.3675 12.8215 2.82103
O 3.53485 -17.1088 2.53492
O 13.5998 -3.33077 5.42115
O 12.4594 9.79647 3.16642
O 2.02049 -13.2552 2.78784
O 17.0008 1.402 -2.69646
Si 18.5215 0.889868 -2.34263
Si 15.4021 1.53623 -2.41101
O 16.3943 -1.67161 -0.515926
Si 17.9834 -1.96373 -0.821404
Si 14.9488 -0.913779 -0.678529
O 18.4701 -2.20495 0.759382
O 13.1974 14.6218 -1.83229
O 6.61311 -16.0159 -2.18901
O 14.2993 -1.1076 0.792138
O 11.3913 10.8901 -1.83943
O 5.36164 -12.0706 -2.44392
O 17.1213 3.04064 11.4591
Si 18.6743 3.42617 11.8331
Si 15.52 3.06201 11.7486
O 16.879 0.52053 13.7811
Si 18.492 0.57129 13.4099
Si 15.2538 0.684129 13.5972
O 19.0336 0.655935 14.9901
O 10.3755 15.9172 12.4157
O 8.88522 -14.8362 12.1596
O 14.7479 1.15152 15.0632
O 8.32408 12.7165 12.8971
O 6.37634 -11.5435 12.4129
O 16.7919 6.24401 6.74461
Si 18.3768 6.53415 7.06516
Si 15.1712 6.31423 6.98251
O 17.0477 3.93809 9.04841
Si 18.6483 3.73978 8.67994
Si 15.4144 3.9624 8.86059
O 19.1949 3.60301 10.2544
O 7.93073 17.0067 7.61643
O 11.5517 -12.9401 7.43355
O 14.8871 3.5531 10.3394
O 7.21615 12.9109 7.45311
O 9.26639 -9.48878 7.18043
O 16.5487 8.03067 11.2664
Si 17.7794 9.03963 11.6787
Si 14.9934 7.60983 11.4539
O 16.8058 6.14823 13.6963
Si 18.4052 6.32871 13.3586
Si 15.3132 5.48574 13.5367
O 18.9196 6.50409 14.9386
O 4.78925 17.6456 12.3613
O 13.4119 -11.1856 12.3308
O 14.6556 5.80938 14.9817
O 3.73385 13.6504 12.6662
O 10.0971 -8.70667 12.5851
O 13.7406 12.19 7.0717
Si 16.7954 11.9321 6.85145
Si 14.1191 10.6416 6.67722
O 16.1647 9.30619 8.88098
Si 17.7845 9.39239 8.53978
Si 14.6289 8.74946 8.70715
O 18.294 9.3903 10.1303
O 2.19818 17.8653 7.49027
O 15.4576 -8.6304 7.60414
O 14.2417 8.03143 10.0969
O 2.60577 13.7413 7.24828
O 12.3141 -5.9366 7.35366
O 12.6558 12.2507 11.6926
Si 13.9178 13.3342 11.5407
Si 11.7217 10.8824 11.7284
O 14.789 10.913 13.1341
Si 16.273 11.6244 13.1221
Si 13.8359 9.62249 13.3857
O 16.8639 12.1241 14.6201
O -1.04704 17.6574 12.2083
O 16.767 -6.43285 12.4995
O 13.5425 9.78254 14.9344
O -0.931015 13.5197 12.4714
O 12.898 -4.96499 12.7635
O 11.3836 13.3916 6.62822
Si 11.7468 14.9845 6.84558
Si 10.5114 12.0488 6.93101
O 13.1268 12.2029 9.00485
Si 14.1247 13.3541 8.24379
Si 12.3896 10.7258 8.86945
O 14.2693 13.6701 9.92986
O -3.56515 17.1427 7.31806
O 18.0286 -3.41446 7.77082
O 11.7091 10.3224 10.2402
O -2.05079 13.2891 7.06515
O 14.2655 -1.68447 7.53821
O 8.11141 14.8035 11.2684
Si 8.91937 16.1872 11.6069
Si 7.57903 13.3008 11.5976
O 10.8874 13.4606 13.4471
Si 11.5507 14.9337 13.1263
Si 9.74386 12.2817 13.4803
O 11.8764 15.4257 14.692
O -6.64335 16.0499 12.042
O 18.665 -0.927634 12.6516
O 9.75043 11.735 14.9991
O -5.39196 12.1046 12.2969
O 14.5775 -0.622472 12.9609
O 6.47922 15.312 6.53185
Si 6.43492 16.9314 6.83989
Si 6.03243 13.7581 6.77072
O 8.42961 14.6955 8.78494
Si 9.12141 16.1481 8.44184
Si 8.25561 13.0706 8.67254
O 9.23297 16.6576 10.0323
O -8.91551 14.8702 7.14614
O 19.0233 2.31307 7.86723
O 7.77873 12.6125 10.1486
O -6.40668 11.5775 6.89294
O 15.0221 2.96815 7.65394
O 3.36333 15.7389 11.2379
Si 3.35705 17.3567 11.514
Si 2.86579 14.1904 11.425
O 5.49447 15.4966 13.4937
Si 6.13599 16.9811 13.1392
Si 5.17318 13.8949 13.3306
O 6.38253 17.4747 14.716
O -11.582 12.9741 11.8722
O 18.9176 4.88301 12.6511
O 5.45235 13.2695 14.796
O -9.2967 9.52282 12.1254
O 15.2954 3.96571 13.0605
O 1.25635 15.8727 6.36301
Si 0.775194 17.4139 6.69684
Si 1.24259 14.2528 6.57253
O 3.30096 15.7493 8.64772
Si 3.55359 17.3454 8.34916
Si 3.55331 14.1379 8.48587
O 3.49647 17.8766 9.93235
O -13.4422 11.2197 6.97508
O 18.4577 8.06131 7.76309
O 3.16349 13.5813 9.95496
O -10.1273 8.74067 6.7207
O 14.6363 7.74964 7.44286
O -1.88299 15.4182 11.0609
Si -2.32949 16.9731 11.3478
Si -1.92575 13.789 11.2371
O 0.140687 15.8063 13.3489
Si 0.42567 17.3924 13.0003
Si 0.357053 14.2011 13.1429
O 0.567069 17.9321 14.5753
O -15.488 8.66448 11.7018
O 17.3319 10.493 12.4276
O 0.83758 13.649 14.583
O -12.3445 5.97067 11.9521
O 14.5566 8.32737 12.8295
O -3.93571 14.9662 6.18691
Si -4.81375 16.3193 6.52762
Si -3.50468 13.4048 6.39636
O -1.92201 15.411 8.4722
Si -2.12146 17.016 8.18338
Si -1.24199 13.9297 8.29828
O -2.33167 17.5105 9.76559
O -16.7974 6.46695 6.80633
O 15.7461 13.0037 7.69273
O -1.46666 13.2875 9.76757
O -12.9284 4.99903 6.54226
O 13.6876 9.97466 8.13572
O -6.83082 13.6698 10.8889
Si -7.68661 15.0424 11.177
Si -6.4243 12.0916 11.0643
O -4.98358 14.5949 13.174
Si -5.1537 16.1984 12.8315
Si -4.33544 13.1104 12.965
O -5.16106 16.7581 14.406
O -18.0591 3.4486 11.535
O 12.9748 14.5547 12.2798
O -3.72651 12.7118 14.4071
O -14.296 1.71862 11.7676
O 10.3282 11.2162 12.4326
O -8.67852 12.675 6.01499
Si -9.89264 13.7365 6.35689
Si -7.83697 11.2911 6.22467
O -6.86118 13.6545 8.30093
Si -7.49262 15.1437 8.01266
Si -5.80316 12.4148 8.1258
O -7.83265 15.5603 9.59485
O -18.6955 0.961739 6.65416
O 10.6031 15.903 7.67535
O -5.84459 11.7353 9.59496
O -14.608 0.656537 6.34487
O 9.5872 12.3359 8.21037
O -11.1092 10.6347 10.7176
Si -12.3085 11.7201 11.0058
Si -10.2861 9.22806 10.8927
O -9.58612 12.0292 13.0027
Si -10.1897 13.5247 12.661
Si -8.55569 10.7794 12.7935
O -10.3482 14.0623 14.2354
O -19.0539 -2.27899 11.4386
O 7.63521 16.993 12.3605
O -7.86102 10.5631 14.2357
O -15.0526 -2.93404 11.6518
O 6.07411 13.3078 12.1352
O -12.6131 9.17501 5.84253
Si -14.072 9.86167 6.18594
Si -11.4247 8.07456 6.05177
O -11.1336 10.6125 8.12965
Si -12.1482 11.8723 7.84158
Si -9.77637 9.71015 7.95451
O -12.5899 12.1792 9.42382
O -18.9482 -4.84898 6.65476
O 5.08032 17.5049 7.6583
O -9.6307 9.0446 9.42342
O -15.326 -3.93174 6.24528
O 5.02276 13.7302 8.02241
O -14.3905 6.54652 10.5457
Si -15.8421 7.25958 10.835
Si -13.2147 5.41763 10.7182
O -13.3103 8.30135 12.8308
Si -14.2998 9.57531 12.4903
Si -11.9767 7.38195 12.6215
O -14.5994 10.0496 14.0643
O -18.4882 -8.02724 11.5427
O 1.86404 17.7469 12.1941
O -11.2491 7.36566 14.0637
O -14.6668 -7.71559 11.8629
O 1.35204 14.0131 11.8926
O -15.4407 4.73276 5.66572
Si -17.0315 4.98805 6.01749
Si -13.9934 4.00451 5.87045
O -14.41 6.51625 7.95698
Si -15.731 7.45017 7.67086
Si -12.857 6.02275 7.78037
O -16.2392 7.62426 9.25327
O -17.3625 -10.459 6.87817
O -0.689361 17.5904 7.50896
O -12.5343 5.42136 9.24877
O -14.587 -8.29347 6.47631
O 0.27966 13.9326 7.82181
O -16.4248 1.70577 10.3689
Si -18.0139 1.99783 10.6743
Si -14.9793 0.947898 10.5314
O -15.8692 3.69099 12.6544
Si -17.1673 4.65132 12.3219
Si -14.3341 3.17492 12.4425
O -17.5881 5.02423 13.8951
O -15.7767 -12.9697 11.6131
O -3.87425 16.9366 12.0204
O -13.6303 3.3649 13.8846
O -13.7182 -9.94066 11.1701
O -3.32535 13.1927 11.7147
O -16.9095 -0.486561 5.52473
Si -18.5225 -0.537226 5.89584
Si -15.2843 -0.650093 5.70859
O -16.4332 1.70226 7.81158
Si -17.9619 2.21591 7.51146
Si -14.8123 1.64242 7.59804
O -18.5005 2.23904 9.09351
O -13.0053 -14.5208 7.02596
O -6.27029 16.0884 7.34151
O -14.3298 1.14172 9.06075
O -10.3586 -11.1824 6.87326
O -4.34053 12.8321 7.64684
O -17.0783 -3.90401 10.2574
Si -18.6789 -3.70571 10.6259
Si -15.445 -3.92836 10.4452
O -17.0313 -1.36788 12.5493
Si -18.552 -0.855767 12.1955
Si -15.4326 -1.50211 12.2639
O -19.0642 -0.621842 13.7686
O -10.6336 -15.869 11.6305
O -9.16281 14.5841 11.8474
O -14.7784 -1.11742 13.6954
O -9.6176 -12.3019 11.0954
O -7.6064 11.1344 11.5432
O -16.8364 -6.1142 5.60959
Si -18.4358 -6.29468 5.94725
Si -15.3438 -5.45175 5.76908
O -17.1519 -3.00654 7.84663
Si -18.7049 -3.39211 7.47273
Si -15.5506 -3.028 7.55723
O -19.2255 -3.56896 9.05141
O -7.66564 -16.959 6.94518
O -11.2302 13.1157 7.17139
O -14.9177 -3.51908 8.96638
O -6.10461 -13.2737 7.17051
O -8.48416 10.5125 7.47576
O -16.1953 -9.2722 10.4248
Si -17.8151 -9.35833 10.766
Si -14.6594 -8.71546 10.5987
O -16.8225 -6.21003 12.5613
Si -18.4073 -6.50009 12.2407
Si -15.2018 -6.28021 12.3233
O -18.9502 -6.47006 13.8201
O -5.11069 -17.4709 11.6475
O -13.6027 10.8748 11.6757
O -14.6862 -5.77539 13.777
O -5.05306 -13.6962 11.2834
O -11.1613 7.98387 11.3711
O -14.8195 -10.8791 6.17177
Si -16.3035 -11.5905 6.18364
Si -13.8664 -9.58868 5.92018
O -16.5791 -7.9967 8.03929
Si -17.8099 -9.00563 7.6271
Si -15.0239 -7.57589 7.85183
O -18.3245 -9.35627 9.17551
O -1.89444 -17.713 7.11165
O -15.1883 8.8975 7.00031
O -14.2722 -7.99748 9.20886
O -1.38239 -13.9793 7.41328
O -11.8354 7.15045 7.30381
O -13.1573 -12.1688 10.301
Si -14.1553 -13.3202 11.062
Si -12.4202 -10.6918 10.4364
O -13.7712 -12.1561 12.2341
Si -16.826 -11.8981 12.4543
Si -14.1497 -10.6076 12.6286
O -16.8945 -12.0902 14.1385
O 0.659038 -17.5565 11.7969
O -16.8537 6.09132 11.5059
O -13.5731 -9.74869 13.8244
O -0.309962 -13.8987 11.484
O -13.7185 3.98106 11.1927
O -10.9179 -13.4266 5.8586
Si -11.5812 -14.8997 6.17945
Si -9.77438 -12.2478 5.8255
O -12.6863 -12.2168 7.61333
Si -13.9484 -13.3002 7.76514
Si -11.7521 -10.8485 7.57747
O -14.2998 -13.6362 9.37594
O 3.84398 -16.9027 7.28555
O -17.8412 3.75356 6.83149
O -11.7396 -10.2885 9.06563
O 3.295 -13.1587 7.59113
O -14.1375 3.00734 7.12546
O -8.46008 -14.6615 10.5208
Si -9.15184 -16.1142 10.864
Si -8.28602 -13.0367 10.6332
O -11.414 -13.3576 12.6775
Si -11.7772 -14.9505 12.4602
Si -10.5419 -12.0148 12.3747
O -11.9069 -15.3917 14.0667
O 6.24 -16.0545 11.9644
O -18.6623 0.60232 11.3601
O -9.78092 -11.7011 13.7596
O 4.31021 -12.7982 11.659
O -15.0657 -0.572538 11.0052
O -5.52483 -15.4625 5.81209
Si -6.16637 -16.9471 6.16657
Si -5.20356 -13.8608 5.97515
O -8.14165 -14.7697 8.03726
Si -8.94985 -16.1533 7.69887
Si -7.60951 -13.2669 7.70817
O -9.26337 -16.6237 9.27352
O 9.13252 -14.5501 7.45836
O -19.0463 -1.92381 6.70314
O -7.80921 -12.5786 9.15713
O 7.57605 -11.1003 7.76261
O -15.0156 -1.65015 6.9429
O -3.33124 -15.7155 10.6581
Si -3.58392 -17.3115 10.9566
Si -3.58362 -14.104 10.8199
O -6.50946 -15.278 12.774
Si -6.46527 -16.8974 12.4659
Si -6.06276 -13.7241 12.535
O -6.41288 -17.4407 14.0426
O 11.1999 -13.0816 12.1344
O -18.9997 -5.17344 11.3898
O -5.48267 -13.2354 13.9626
O 8.45383 -10.4784 11.83
O -14.9231 -5.31422 11.0651
O -0.17106 -15.7724 5.95697
Si -0.456023 -17.3585 6.30558
Si -0.387399 -14.1672 6.1629
O -3.39369 -15.705 8.06796
Si -3.38742 -17.3227 7.79184
Si -2.89617 -14.1565 7.8808
O -3.5268 -17.8427 9.37344
O 13.5724 -10.8408 7.6302
O -18.5935 -7.76397 6.77228
O -3.19379 -13.5474 9.35084
O 11.131 -7.94981 7.93468
O -14.7996 -6.17054 7.10518
O 1.89174 -15.3771 10.8337
Si 2.09117 -16.9822 11.1225
Si 1.21169 -13.8959 11.0076
O -1.28674 -15.8388 12.9427
Si -0.805518 -17.38 12.609
Si -1.27291 -14.2189 12.7333
O -0.597364 -17.8982 14.1834
O 15.158 -8.8634 12.3056
O -17.8173 -10.828 11.5974
O -0.867942 -13.6151 14.1758
O 11.8051 -7.11645 12.002
O -15.731 -10.7358 12.7046
O 4.95335 -14.5608 6.13194
Si 5.12342 -16.1645 6.47438
Si 4.30511 -13.0765 6.34096
O 1.85267 -15.3843 8.24496
Si 2.29917 -16.9392 7.95801
Si 1.89539 -13.7551 8.06879
O 2.30137 -17.4766 9.54027
O 16.8232 -6.05717 7.79991
O -15.398 -12.7875 7.03188
O 1.4363 -13.2537 9.5383
O 13.688 -3.94692 8.11309
O -12.4899 -9.76262 6.68646
O 6.83085 -13.6205 11.0049
Si 7.46229 -15.1097 11.2932
Si 5.77283 -12.3808 11.18
O 3.90547 -14.9323 13.119
Si 4.78348 -16.2854 12.7782
Si 3.4744 -13.3709 12.9095
O 5.13075 -16.7241 14.3527
O 17.8107 -3.71944 12.4743
O -13.2279 -14.5878 11.6852
O 3.6962 -12.6779 14.3517
O 14.107 -2.97323 12.1803
O -11.4218 -10.8561 11.6923
O 9.55584 -11.9951 6.30311
Si 10.1594 -13.4906 6.64477
Si 8.52538 -10.7454 6.51232
O 6.80066 -13.6357 8.41705
Si 7.65635 -15.0084 8.12887
Si 6.39401 -12.0575 8.24157
O 7.80235 -15.5263 9.71098
O 18.6317 -0.568194 7.94567
O -10.406 -15.8832 6.8901
O 5.81428 -11.7013 9.71089
O 15.0353 0.606684 8.30059
O -8.35463 -12.6828 6.4086
O 11.1033 -10.5784 11.1762
Si 12.118 -11.8382 11.4643
Si 9.74609 -9.67611 11.3513
O 8.64811 -12.641 13.2907
Si 9.86233 -13.7024 12.9489
Si 7.80663 -11.2571 13.0811
O 10.3179 -14.0282 14.5233
O 19.0157 1.95787 12.6027
O -7.96109 -16.9727 11.6894
O 7.8307 -10.5291 14.5229
O 14.9851 1.68411 12.3629
O -7.2465 -12.8769 11.8526
O 13.28 -8.26733 6.47502
Si 14.2694 -9.54126 6.81559
Si 11.9464 -7.3479 6.68432
O 11.0788 -10.6007 8.58823
Si 12.2782 -11.6861 8.30003
Si 10.2558 -9.19402 8.41314
O 12.5596 -12.1451 9.88203
O 18.9691 5.20752 7.91606
O -4.81963 -17.6116 6.94443
O 9.6004 -9.01055 9.88241
O 14.8924 5.34825 8.24074
O -3.76424 -13.6164 6.63961
O 14.3796 -6.48222 11.3488
Si 15.7007 -7.4161 11.635
Si 12.8266 -5.98872 11.5254
O 12.5829 -9.14094 13.4634
Si 14.0418 -9.8276 13.1199
Si 11.3944 -8.04056 13.2541
O 14.5691 -10.0155 14.6944
O 18.563 7.79797 12.5335
O -2.22849 -17.8314 11.8155
O 11.2188 -7.33164 14.695
O 14.7691 6.20447 12.2006
O -2.63608 -13.7074 12.0575
O 15.8387 -3.65682 6.65141
Si 17.1368 -4.61716 6.98388
Si 14.3036 -3.14078 6.86332
O 14.3601 -6.51244 8.7601
Si 15.8117 -7.22545 8.4708
Si 13.1843 -5.38351 8.58762
O 16.2088 -7.5901 10.0525
O 17.7867 10.8621 7.70833
O 1.0167 -17.6234 7.09756
O 12.5039 -5.38729 10.0571
O 15.7004 10.7698 6.60116
O 0.900693 -13.4858 6.83444
O 16.4027 -1.66818 11.4942
Si 17.9314 -2.18181 11.7943
Si 14.7818 -1.60833 11.7077
O 15.4103 -4.69863 13.6401
Si 17.0011 -4.95392 13.2883
Si 13.9629 -3.9704 13.4353
O 17.5576 -4.9901 14.8636
O 15.3675 12.8215 12.2739
O 3.53486 -17.1088 11.9878
O 13.5998 -3.33077 14.8741
O 12.4594 9.79644 12.6193
O 2.02047 -13.2552 12.2408
O 17.0008 1.40199 6.75644
Si 18.5214 0.889886 7.11025
Si 15.402 1.53624 7.04188
O 16.3943 -1.67161 8.93699
Si 17.9834 -1.96373 8.63149
Si 14.9488 -0.913756 8.77439
O 18.4701 -2.20499 10.2123
O 13.1974 14.6218 7.62063
O 6.61311 -16.0159 7.26388
O 14.2993 -1.10761 10.2451
O 11.3913 10.8901 7.61346
O 5.36161 -12.0705 7.00898
O 17.1213 3.04061 20.912
Si 18.6743 3.42615 21.286
Si 15.52 3.06201 21.2015
O 16.879 0.520447 23.234
Si 18.492 0.57126 22.8628
Si 15.2538 0.684087 23.0501
O 19.0336 0.655905 24.443
O 10.3756 15.9172 21.8686
O 8.88522 -14.8362 21.6126
O 14.7479 1.15149 24.5161
O 8.32408 12.7165 22.35
O 6.37634 -11.5435 21.8658
O 16.7919 6.24394 16.1975
Si 18.3768 6.53413 16.5181
Si 15.1712 6.31419 16.4354
O 17.0477 3.93812 18.5013
Si 18.6483 3.73978 18.1328
Si 15.4144 3.96239 18.3135
O 19.195 3.603 19.7073
O 7.93072 17.0067 17.0693
O 11.5517 -12.9401 16.8864
O 14.8871 3.55309 19.7923
O 7.21618 12.9109 16.906
O 9.26641 -9.48879 16.6333
O 16.5486 8.03067 20.7193
Si 17.7794 9.0396 21.1316
Si 14.9934 7.60979 20.9068
O 16.8058 6.14818 23.1491
Si 18.4052 6.32868 22.8115
Si 15.3133 5.4857 22.9896
O 18.9196 6.50411 24.3915
O 4.78923 17.6456 21.8143
O 13.4118 -11.1856 21.7837
O 14.6556 5.80938 24.4346
O 3.73383 13.6504 22.1191
O 10.0971 -8.70668 22.0381
O 13.7406 12.19 16.5246
Si 16.7954 11.932 16.3043
Si 14.1191 10.6415 16.1301
O 16.1647 9.30618 18.3339
Si 17.7845 9.39235 17.9927
Si 14.6289 8.74946 18.1601
O 18.294 9.39026 19.5832
O 2.19819 17.8653 16.9431
O 15.4576 -8.63042 17.057
O 14.2417 8.03142 19.5498
O 2.60579 13.7413 16.7012
O 12.3141 -5.93661 16.8066
O 12.6558 12.2507 21.1455
Si 13.9178 13.3342 20.9936
Si 11.7216 10.8824 21.1813
O 14.789 10.913 22.587
Si 16.2729 11.6244 22.575
Si 13.8359 9.62249 22.8385
O 16.8639 12.1241 24.073
O -1.04704 17.6574 21.6612
O 16.767 -6.43286 21.9524
O 13.5425 9.78257 24.3872
O -0.931016 13.5197 21.9243
O 12.898 -4.965 22.2164
O 11.3836 13.3916 16.0811
Si 11.7468 14.9845 16.2985
Si 10.5115 12.0488 16.3839
O 13.1268 12.2028 18.4577
Si 14.1247 13.3541 17.6967
Si 12.3896 10.7257 18.3224
O 14.2693 13.6701 19.3828
O -3.56515 17.1427 16.7709
O 18.0286 -3.41448 17.2237
O 11.7091 10.3224 19.6931
O -2.05078 13.2891 16.518
O 14.2655 -1.68451 16.9911
O 8.11137 14.8035 20.7213
Si 8.91936 16.1872 21.0598
Si 7.57901 13.3008 21.0505
O 10.8874 13.4606 22.9
Si 11.5507 14.9337 22.5792
Si 9.74386 12.2817 22.9332
O 11.8764 15.4257 24.1448
O -6.64336 16.0499 21.4948
O 18.665 -0.927653 22.1045
O 9.75041 11.735 24.452
O -5.39198 12.1046 21.7498
O 14.5775 -0.622496 22.4138
O 6.47923 15.312 15.9847
Si 6.43495 16.9314 16.2928
Si 6.03246 13.7581 16.2236
O 8.42961 14.6955 18.2378
Si 9.12141 16.1481 17.8948
Si 8.25563 13.0706 18.1254
O 9.23295 16.6576 19.4852
O -8.91549 14.8702 16.599
O 19.0233 2.31305 17.3201
O 7.77875 12.6125 19.6015
O -6.40668 11.5776 16.3458
O 15.0221 2.96814 17.1068
O 3.36331 15.739 20.6908
Si 3.35705 17.3567 20.9669
Si 2.86579 14.1904 20.8779
O 5.49449 15.4966 22.9466
Si 6.136 16.9811 22.5921
Si 5.17315 13.8948 22.7835
O 6.38256 17.4748 24.169
O -11.582 12.9741 21.3252
O 18.9176 4.883 22.104
O 5.45237 13.2695 24.2489
O -9.29673 9.52283 21.5783
O 15.2955 3.96568 22.5134
O 1.25633 15.8727 15.8159
Si 0.775182 17.4139 16.1497
Si 1.24261 14.2528 16.0255
O 3.30099 15.7493 18.1006
Si 3.5536 17.3454 17.8021
Si 3.55333 14.1379 17.9388
O 3.49647 17.8766 19.3853
O -13.4422 11.2197 16.428
O 18.4576 8.06127 17.216
O 3.16349 13.5813 19.4079
O -10.1274 8.74066 16.1736
O 14.6363 7.7496 16.8958
O -1.88301 15.4182 20.5138
Si -2.3295 16.9731 20.8007
Si -1.92575 13.789 20.6899
O 0.140654 15.8063 22.8017
Si 0.425682 17.3924 22.4531
Si 0.357048 14.2011 22.5958
O 0.567033 17.9321 24.0282
O -15.488 8.6645 21.1546
O 17.3319 10.493 21.8805
O 0.837575 13.649 24.0359
O -12.3445 5.97067 21.405
O 14.5566 8.32734 22.2824
O -3.93573 14.9662 15.6398
Si -4.81376 16.3193 15.9805
Si -3.50469 13.4048 15.8493
O -1.92203 15.411 17.9251
Si -2.12148 17.016 17.6363
Si -1.24198 13.9298 17.7512
O -2.3317 17.5105 19.2185
O -16.7974 6.46697 16.2592