2880
 Atoms. Timestep: 7380
O 74.3717 48.512 2.74084
Si 75.8735 49.1857 2.74063
Si 73.1362 47.4292 2.74062
O 76.31 45.4282 2.74091
Si 77.5692 46.4882 2.74067
Si 74.798 44.7856 2.74067
O 78.4044 46.0838 4.10433
O 77.0788 48.0616 2.74062
O 78.4043 46.0838 1.37701
O 74.713 43.8988 4.10444
O 73.5991 45.8761 2.74059
O 74.7131 43.8988 1.37692
O 71.7173 52.3266 0.0127528
Si 73.1817 53.0782 0.0130756
Si 70.5401 51.1807 0.0130223
O 73.8143 49.3486 0.0129847
Si 75.0162 50.4733 0.0131958
Si 72.3382 48.6275 0.0131918
O 75.8714 50.1134 1.37685
O 74.4441 52.0188 0.0131967
O 75.8715 50.1134 4.10439
O 72.3 47.7374 1.37698
O 71.0837 49.6538 0.0131865
O 72.3 47.7374 4.10427
O 55.6812 69.0579 2.74118
Si 56.9027 70.1612 2.74095
Si 54.8386 67.6476 2.74094
O 58.4737 66.7197 2.7411
Si 59.3454 68.1159 2.74093
Si 57.2332 65.6426 2.74092
O 60.2643 67.9885 4.1046
O 58.3951 69.4622 2.74093
O 60.2643 67.9884 1.37723
O 57.4259 64.7723 4.10462
O 55.7569 66.3119 2.74093
O 57.4259 64.7724 1.37719
O 51.9836 71.8741 0.0133242
Si 53.1463 73.0392 0.0135621
Si 51.2154 70.4219 0.0135549
O 54.8935 69.6835 0.0132568
Si 55.6915 71.1231 0.0135218
Si 53.7105 68.5435 0.0135091
O 56.6158 71.0434 1.37722
O 54.6728 72.4184 0.0135808
O 56.6158 71.0434 4.10466
O 53.9481 67.6844 1.37723
O 52.2016 69.1355 0.013572
O 53.948 67.6844 4.10462
O 31.589 82.8823 2.73802
Si 32.413 84.3072 2.73958
Si 31.2202 81.2813 2.73932
O 34.9642 81.5131 2.74146
Si 35.3652 83.1095 2.74104
Si 34.114 80.1073 2.74111
O 36.2788 83.2699 4.10486
O 34.0478 84.0996 2.74061
O 36.279 83.2697 1.37737
O 34.5638 79.338 4.10488
O 32.5038 80.2916 2.74071
O 34.5642 79.338 1.37753
O 9.04836 88.2613 0.0132948
Si 27.954 85.8919 0.0135719
Si 26.9208 82.8079 0.0136428
O 30.6478 83.2357 0.0125841
Si 30.965 84.8508 0.0122367
Si 29.8721 81.7874 0.0119864
O 31.8697 85.0587 1.37559
O 29.5975 85.7704 0.0131378
O 31.8685 85.0588 4.10298
O 30.3624 81.0423 1.37518
O 28.2544 81.8869 0.0132731
O 30.3609 81.0433 4.10261
O 4.41485 88.6211 2.74114
Si 4.75912 90.2306 2.74096
Si 4.55787 86.9844 2.74094
O 8.04781 88.3598 2.74126
Si 7.93706 90.002 2.74103
Si 7.67249 86.7604 2.74101
O 8.75691 90.4363 4.10475
O 6.37838 90.5375 2.74101
O 8.75685 90.4363 1.37726
O 8.33759 86.1673 4.10463
O 6.08399 86.4389 2.74106
O 8.3375 86.1674 1.37732
O -18.6825 86.768 0.0132533
Si 0.0284083 90.3622 0.0136017
Si -18.1203 85.2243 0.013563
O 3.41055 88.6669 0.0132397
Si 3.21387 90.301 0.0135265
Si 3.11962 87.0499 0.0135092
O 4.00985 90.7777 1.3772
O 1.62926 90.7537 0.0136422
O 4.00976 90.7778 4.10464
O 3.81495 86.4926 1.37718
O 1.5502 86.6453 0.0137185
O 3.81474 86.4926 4.10458
O -23.1997 85.6768 2.74115
Si -23.3701 87.3139 2.74094
Si -22.5576 84.1646 2.74093
O -19.6642 86.552 2.74121
Si -20.2776 88.0794 2.74101
Si -19.5264 84.9149 2.74099
O -19.6325 88.7461 4.10468
O -21.9253 88.1065 2.741
O -19.6326 88.746 1.37726
O -18.7103 84.5567 4.10461
O -20.9375 84.1178 2.74108
O -18.7106 84.5567 1.37721
O -44.5944 76.7757 0.013244
Si -27.9096 85.9771 0.0135101
Si -43.5828 75.4812 0.0135
O -24.1688 85.41 0.0132283
Si -24.8612 86.9032 0.0135057
Si -23.9456 83.7823 0.0134912
O -24.2517 87.6026 1.37721
O -26.5082 86.8442 0.0135437
O -24.2518 87.6026 4.10462
O -23.1121 83.4672 1.37716
O -25.3132 82.9125 0.0135516
O -23.1122 83.4671 4.10461
O -48.5538 74.3424 2.74116
Si -49.2217 75.8468 2.74097
Si -47.4759 73.1026 2.74096
O -45.4616 76.2671 2.74119
Si -46.5168 77.5303 2.74096
Si -44.8248 74.7527 2.74094
O -46.1091 78.3637 4.10467
O -48.0924 77.0471 2.74096
O -46.1091 78.3636 1.37722
O -43.938 74.664 4.1046
O -45.9206 73.5587 2.74093
O -43.9381 74.6641 1.37724
O -66.1558 59.2697 0.0132489
Si -53.1256 73.172 0.0135366
Si -51.2387 70.5229 0.0135154
O -49.3931 73.789 0.0133238
Si -50.5129 74.9953 0.0135404
Si -48.6779 72.3099 0.0135245
O -50.1494 75.8488 1.37724
O -52.0609 74.4299 0.0135689
O -50.1495 75.8489 4.10468
O -47.7878 72.2679 1.37724
O -49.7095 71.0599 0.0135305
O -47.7878 72.2679 4.10466
O -69.169 55.731 2.74119
Si -70.2688 56.9556 2.74096
Si -67.761 54.8846 2.74094
O -66.8232 58.5174 2.74117
Si -68.2169 59.3931 2.74095
Si -65.7499 57.2737 2.74093
O -68.0867 60.3118 4.10461
O -69.5659 58.4463 2.74094
O -68.0867 60.3118 1.37725
O -64.8792 57.4637 4.10464
O -66.423 55.7992 2.74093
O -64.8793 57.4637 1.37719
O -81.2626 35.96 0.013357
Si -73.1566 53.2061 0.0135502
Si -70.5442 51.2685 0.0135451
O -69.7965 54.9449 0.0132639
Si -71.234 55.7467 0.0135249
Si -68.6596 53.7589 0.013508
O -71.1518 56.6709 1.3772
O -72.5319 54.7311 0.0135586
O -71.1519 56.6709 4.10469
O -67.8001 53.9942 1.37725
O -69.2553 52.2514 0.0135273
O -67.8 53.9941 4.10461
O -83.036 31.6632 2.7412
Si -84.4605 32.4879 2.74096
Si -81.4353 31.2932 2.74096
O -81.6653 35.038 2.74123
Si -83.2614 35.4402 2.74099
Si -80.2602 34.1867 2.741
O -83.4211 36.3544 4.10468
O -84.252 34.1229 2.74095
O -83.421 36.3544 1.3773
O -79.4907 34.6364 4.10472
O -80.4451 32.5765 2.74094
O -79.4908 34.6365 1.37729
O -88.4113 9.11144 0.0131584
Si -86.0485 28.0283 0.0134996
Si -82.9649 26.9937 0.0134875
O -83.3902 30.7212 0.0132784
Si -85.0052 31.0392 0.0135294
Si -81.9424 29.9448 0.013523
O -85.2123 31.9439 1.37723
O -85.9256 29.6719 0.013545
O -85.2124 31.9439 4.10468
O -81.1975 30.4343 1.37724
O -82.0431 28.327 0.0135311
O -81.1974 30.4342 4.10466
O -88.7652 4.47471 2.74115
Si -90.3751 4.81752 2.7409
Si -87.1286 4.61878 2.7409
O -88.508 8.10838 2.74111
Si -90.1501 7.99651 2.74088
Si -86.9081 7.73477 2.74086
O -90.5854 8.8166 4.10451
O -90.6835 6.4368 2.74087
O -90.5853 8.81656 1.37721
O -86.3164 8.40177 4.10461
O -86.5851 6.14611 2.74084
O -86.3165 8.40173 1.37706
O -88.8803 -0.173946 0.0131302
Si -90.5059 0.0845504 0.0133777
Si -87.2535 0.0554247 0.013374
O -88.8106 3.46816 0.0132431
Si -90.4448 3.27078 0.0134631
Si -87.1935 3.17848 0.0134597
O -90.9215 4.06709 1.37723
O -90.8972 1.68574 0.0134207
O -90.9216 4.06714 4.10457
O -86.6368 3.875 1.37719
O -86.7892 1.60861 0.0133627
O -86.6367 3.87509 4.10463
O -88.7528 -4.82168 2.74085
Si -90.3896 -4.64865 2.74064
Si -87.1402 -4.50726 2.74063
O -88.8737 -1.18099 2.74109
Si -90.4953 -1.46359 2.7408
Si -87.2437 -1.38573 2.74081
O -91.0128 -0.693205 4.10461
O -90.8642 -3.07013 2.74068
O -91.0127 -0.693156 1.37702
O -86.7237 -0.661546 4.10448
O -86.7577 -2.9321 2.74063
O -86.7238 -0.661427 1.37718
O -88.3805 -9.45557 0.012584
Si -90.0242 -9.36899 0.0129073
Si -86.7869 -9.05649 0.0128758
O -88.6933 -5.82636 0.0130111
Si -90.2977 -6.19398 0.0131917
Si -87.0547 -5.94514 0.0131913
O -90.8549 -5.4519 1.37701
O -90.5814 -7.81771 0.013065
O -90.855 -5.45186 4.10426
O -86.5734 -5.19503 1.37689
O -86.4878 -7.46356 0.0130198
O -86.5734 -5.19492 4.1044
O -87.7624 -14.0624 2.74023
Si -89.4084 -14.063 2.74007
Si -86.1921 -13.5795 2.74005
O -88.2678 -10.4551 2.74061
Si -89.8505 -10.9071 2.74033
Si -86.6253 -10.4871 2.74031
O -90.4465 -10.1957 4.10409
O -90.0475 -12.5436 2.74018
O -90.4464 -10.1957 1.37656
O -86.1843 -9.71284 4.10398
O -85.9783 -11.973 2.74016
O -86.1844 -9.71285 1.37661
O -86.8991 -18.6291 0.0121005
Si -88.5427 -18.7169 0.0123724
Si -85.3566 -18.0636 0.0123735
O -87.5963 -15.054 0.0124442
Si -89.1527 -15.5894 0.012622
Si -85.9544 -14.999 0.0126061
O -89.7859 -14.9108 1.37636
O -89.2621 -17.2339 0.0124941
O -89.7859 -14.9108 4.10375
O -85.5553 -14.2025 1.37635
O -85.2288 -16.4481 0.0124316
O -85.5553 -14.2025 4.10373
O -85.7945 -23.1431 2.73954
Si -87.4312 -23.3177 2.73935
Si -84.284 -22.497 2.73936
O -86.6802 -19.6101 2.74015
Si -88.2062 -20.2271 2.73978
Si -85.0435 -19.4683 2.7398
O -88.8746 -19.5835 4.10349
O -88.2282 -21.8751 2.73949
O -88.8746 -19.5834 1.37613
O -84.6874 -18.6519 4.10361
O -84.2421 -20.8769 2.73943
O -84.6875 -18.6518 1.37608
O -84.4545 -27.5927 0.0108856
Si -86.0797 -27.8533 0.0112559
Si -82.9801 -26.8681 0.0112268
O -85.5243 -24.1112 0.0117821
Si -87.0156 -24.8077 0.0118853
Si -83.8973 -23.8834 0.0119104
O -87.717 -24.2004 1.37561
O -86.9513 -26.4545 0.0115843
O -87.7171 -24.2003 4.10308
O -83.5848 -23.0492 1.37572
O -83.0231 -25.248 0.0115675
O -83.5848 -23.049 4.10305
O -82.8836 -31.9662 2.73818
Si -84.4928 -32.3118 2.73815
Si -81.4493 -31.1651 2.73809
O -84.1342 -28.5454 2.73894
Si -85.5868 -29.3195 2.73866
Si -82.5214 -28.2324 2.73865
O -86.319 -28.7496 4.10234
O -85.4363 -30.9606 2.73846
O -86.3189 -28.7497 1.37495
O -82.2529 -27.3828 4.10233
O -81.577 -29.5495 2.73853
O -82.253 -27.383 1.37489
O -81.0856 -36.2514 0.0100452
Si -82.6745 -36.6813 0.0104789
Si -79.6956 -35.3759 0.0103659
O -82.514 -32.9009 0.0104439
Si -83.9239 -33.7503 0.0107026
Si -80.9199 -32.5035 0.0106506
O -84.6849 -33.2195 1.3744
O -83.6876 -35.3814 0.0107492
O -84.6848 -33.2197 4.10176
O -80.6963 -31.6409 1.37424
O -79.9078 -33.7692 0.0107989
O -80.6962 -31.6413 4.10171
O -68.8632 -55.9377 2.73595
Si -70.2863 -56.7646 2.73579
Si -67.7473 -54.7319 2.73578
O -71.1123 -53.0731 2.73615
Si -72.2537 -54.259 2.73594
Si -69.6759 -52.2757 2.73592
O -73.1265 -53.9446 4.09958
O -71.6021 -55.7726 2.73588
O -73.1263 -53.9446 1.37223
O -69.6844 -51.3845 4.0996
O -68.3697 -53.2353 2.73593
O -69.6844 -51.3848 1.37211
O -65.8272 -59.4561 0.00794905
Si -67.2055 -60.3558 0.00822123
Si -64.7755 -58.194 0.00819715
O -68.2219 -56.712 0.00813966
Si -69.3002 -57.9556 0.00835291
Si -66.8289 -55.8411 0.00834311
O -70.188 -57.6869 1.37205
O -68.5711 -59.4334 0.00832839
O -70.1881 -57.687 4.09949
O -66.8837 -54.9516 1.37206
O -65.4747 -56.7317 0.00831569
O -66.8836 -54.9516 4.09944
O -48.1522 -74.4442 2.73554
Si -49.2536 -75.6674 2.73546
Si -47.4595 -72.9545 2.73534
O -51.1704 -72.4055 2.73549
Si -51.8935 -73.8842 2.73536
Si -50.0474 -71.2064 2.73528
O -52.8206 -73.852 4.09903
O -50.8099 -75.1257 2.73548
O -52.8205 -73.852 1.37159
O -50.3285 -70.3606 4.09895
O -48.5102 -71.7203 2.73527
O -50.3285 -70.3606 1.37158
O -27.2195 -84.3897 0.00789475
Si -45.2208 -78.1429 0.00910883
Si -43.57 -75.3405 0.0094401
O -47.3046 -74.9852 0.00765678
Si -47.95 -76.4994 0.00804359
Si -46.2454 -73.7294 0.00791068
O -48.8775 -76.5153 1.37171
O -46.8032 -77.6829 0.00834122
O -48.8774 -76.5155 4.0991
O -46.57 -72.8994 1.37162
O -44.6835 -74.1626 0.00789567
O -46.57 -72.8993 4.09907
O -22.7618 -85.7055 2.73581
Si -23.4332 -87.2083 2.73558
Si -22.5611 -84.0749 2.73557
O -26.261 -84.6942 2.73579
Si -26.4942 -86.3236 2.73557
Si -25.5612 -83.2078 2.73555
O -27.3865 -86.5779 4.09929
O -25.0809 -87.1715 2.73556
O -27.3865 -86.5778 1.37183
O -26.0886 -82.4894 4.09924
O -23.9405 -83.2238 2.73551
O -26.0887 -82.4895 1.37187
O 0.219285 -88.7045 0.00815623
Si -18.8331 -88.3223 0.00818546
Si -18.1263 -85.1476 0.00816841
O -21.7886 -85.9595 0.007895
Si -21.9362 -87.5989 0.00815408
Si -21.1676 -84.4385 0.00813235
O -22.814 -87.8993 1.37188
O -20.4805 -88.3717 0.0081993
O -22.814 -87.8994 4.09926
O -21.7318 -83.7487 1.37183
O -19.5483 -84.3698 0.00814764
O -21.7318 -83.7486 4.09929
O 4.86525 -88.5799 2.7362
Si 4.69081 -90.2166 2.73599
Si 4.55231 -86.9672 2.73593
O 1.22482 -88.6985 2.73603
Si 1.50628 -90.3202 2.73585
Si 1.43123 -87.0686 2.73581
O 0.736015 -90.8374 4.09957
O 3.11227 -90.6904 2.73593
O 0.736063 -90.8374 1.37208
O 0.707967 -86.5479 4.09948
O 2.97765 -86.5835 2.7358
O 0.707942 -86.548 1.37213
O 27.6441 -84.3215 0.0098295
Si 9.40988 -89.8537 0.0087297
Si 26.9238 -82.845 0.00990695
O 5.86896 -88.5208 0.00825893
Si 6.23526 -90.1255 0.00856562
Si 5.98949 -86.8824 0.00849966
O 5.49321 -90.6826 1.37228
O 7.8586 -90.4102 0.00874166
O 5.49328 -90.6827 4.09965
O 5.24001 -86.4006 1.37223
O 7.50803 -86.3161 0.00845038
O 5.23989 -86.4006 4.09968
O 32.0228 -82.7641 2.7381
Si 32.3632 -84.3745 2.73779
Si 31.2263 -81.3272 2.73777
O 28.5981 -84.004 2.73755
Si 29.3675 -85.4591 2.73742
Si 28.29 -82.3903 2.73735
O 28.7956 -86.1895 4.10111
O 31.0091 -85.3138 2.73755
O 28.7955 -86.1895 1.37371
O 27.4413 -82.1193 4.10118
O 29.6101 -81.45 2.73723
O 27.4408 -82.1195 1.37375
O 52.3691 -71.6747 0.0114737
Si 36.7383 -82.5708 0.0105315
Si 51.2272 -70.4935 0.0116892
O 32.9589 -82.3973 0.0101273
Si 33.8033 -83.8102 0.0103718
Si 32.5669 -80.8019 0.0103489
O 33.2702 -84.5694 1.37412
O 35.4351 -83.5795 0.0104669
O 33.2702 -84.5695 4.1015
O 31.7052 -80.5756 1.37415
O 33.8361 -79.7941 0.010289
O 31.7048 -80.5757 4.10159
O 56.0497 -68.8374 2.73946
Si 56.8716 -70.2636 2.73922
Si 54.8479 -67.7173 2.7392
O 53.1775 -71.0771 2.73937
Si 54.3593 -72.2227 2.73914
Si 52.3853 -69.6378 2.73913
O 54.0419 -73.0945 4.10278
O 55.8751 -71.5761 2.73917
O 54.0418 -73.0944 1.37548
O 51.4943 -69.6433 4.10289
O 53.3493 -68.3348 2.73916
O 51.4943 -69.6433 1.37537
O 71.9857 -52.0116 0.0126876
Si 60.4743 -67.1957 0.0120209
Si 70.5354 -51.2399 0.0128575
O 56.8264 -68.1987 0.0114743
Si 58.0661 -69.2814 0.0117991
Si 55.9604 -66.8026 0.0117654
O 57.7942 -70.1683 1.37547
O 59.5467 -68.5577 0.0119528
O 57.7943 -70.1684 4.10293
O 55.0707 -66.8544 1.37547
O 56.8562 -65.4517 0.0119371
O 55.0707 -66.8542 4.10285
O 74.6134 -48.1776 2.73916
Si 75.8352 -49.2806 2.74135
Si 73.1247 -47.4828 2.74146
O 72.5711 -51.1936 2.74036
Si 74.0487 -51.9189 2.74039
Si 71.3737 -50.0688 2.7403
O 74.0149 -52.8463 4.10396
O 75.2914 -50.8364 2.74085
O 74.015 -52.8461 1.37664
O 70.5275 -50.3488 4.10394
O 71.8893 -48.5321 2.74071
O 70.5277 -50.3486 1.37646
O 84.5597 -27.2423 0.013254
Si 78.3166 -45.2499 0.0134573
Si 82.9415 -26.9583 0.0134889
O 75.1558 -47.3302 0.016991
Si 76.6692 -47.9774 0.0141398
Si 73.9012 -46.2695 0.0142742
O 76.6842 -48.9051 1.37794
O 77.8542 -46.8318 0.0135101
O 76.6832 -48.9052 4.10535
O 73.0707 -46.5925 1.37813
O 74.3365 -44.7082 0.0134113
O 73.0708 -46.5938 4.10558
O 85.8677 -22.7812 2.7412
Si 87.3713 -23.4511 2.74096
Si 84.237 -22.5819 2.74095
O 84.8621 -26.2821 2.74117
Si 86.4917 -26.5137 2.74093
Si 83.3749 -25.584 2.74093
O 86.7475 -27.406 4.10455
O 87.3371 -25.0989 2.74092
O 86.7474 -27.4059 1.3773
O 82.6576 -26.1132 4.10471
O 83.3883 -23.963 2.74089
O 82.6577 -26.1132 1.37713
O 88.8522 0.212027 0.0132786
Si 88.4816 -18.8494 0.0135024
Si 85.3064 -18.1443 0.0134835
O 86.1207 -21.8065 0.0132917
Si 87.7601 -21.9531 0.013528
Si 84.5991 -21.1868 0.0135187
O 88.0614 -22.8308 1.37723
O 88.5319 -20.4968 0.0135389
O 88.0615 -22.8308 4.10469
O 83.91 -21.7524 1.37726
O 84.5296 -19.5671 0.0135058
O 83.91 -21.7524 4.10465
O 88.7177 4.86102 2.74119
Si 90.3547 4.68873 2.74095
Si 87.1052 4.54639 2.74095
O 88.8424 1.22034 2.74115
Si 90.4638 1.50351 2.74094
Si 87.2121 1.42414 2.74093
O 90.9829 0.733575 4.10453
O 90.8308 3.11057 2.74093
O 90.9828 0.733591 1.37733
O 86.6941 0.698292 4.10476
O 86.7245 2.97042 2.74094
O 86.6942 0.698323 1.37707
O 88.3485 9.49704 0.013276
Si 89.9921 9.40997 0.0135274
Si 86.7546 9.09862 0.0135224
O 88.6583 5.86729 0.0132571
Si 90.2629 6.23452 0.0135141
Si 87.0197 5.98607 0.0135112
O 90.8199 5.49217 1.37732
O 90.5478 7.8581 0.0135487
O 90.8199 5.49218 4.10455
O 86.5387 5.23503 1.37718
O 86.4544 7.50547 0.0135337
O 86.5386 5.23504 4.10469
O 87.7351 14.1061 2.7412
Si 89.381 14.1054 2.74096
Si 86.1644 13.6243 2.74095
O 88.237 10.498 2.74121
Si 89.8201 10.9488 2.74096
Si 86.5945 10.5309 2.74096
O 90.4151 10.2365 4.1048
O 90.0186 12.5852 2.74094
O 90.4151 10.2365 1.37711
O 86.1529 9.75632 4.10456
O 85.9492 12.0178 2.74093
O 86.153 9.75632 1.37734
O 86.8771 18.6749 0.0132464
Si 88.5208 18.7611 0.0135038
Si 85.334 18.111 0.0134877
O 87.5701 15.0988 0.013273
Si 89.1271 15.6326 0.0135279
Si 85.9281 15.0452 0.0135138
O 89.7593 14.9531 1.37728
O 89.2383 17.2771 0.0135383
O 89.7594 14.9531 4.10463
O 85.5284 14.2487 1.37725
O 85.2044 16.4954 0.0135049
O 85.5283 14.2486 4.10464
O 85.7779 23.1911 2.74114
Si 87.4148 23.364 2.74091
Si 84.2668 22.5466 2.74089
O 86.6595 19.6569 2.74117
Si 88.1861 20.2723 2.74093
Si 85.0226 19.5168 2.74092
O 88.8537 19.6275 4.10464
O 88.21 21.9203 2.7409
O 88.8537 19.6275 1.37722
O 84.6657 18.7004 4.10465
O 84.223 20.9265 2.74086
O 84.6657 18.7004 1.37718
O 84.4424 27.6428 0.0131569
Si 86.0679 27.9018 0.0134037
Si 82.9673 26.9196 0.0133982
O 85.5087 24.16 0.0132396
Si 87.0007 24.855 0.0134704
Si 83.8815 23.9338 0.013458
O 87.7014 24.2466 1.37718
O 86.938 26.502 0.0134451
O 87.7015 24.2466 4.10462
O 83.5682 23.0998 1.37723
O 83.0087 25.2994 0.0133907
O 83.5681 23.0997 4.10457
O 82.8758 32.0184 2.74084
Si 84.4854 32.3626 2.74065
Si 81.4409 31.2184 2.74062
O 84.1231 28.5962 2.7411
Si 85.5764 29.3688 2.74083
Si 82.51 28.2846 2.74083
O 86.308 28.7981 4.10455
O 85.4276 31.0102 2.74072
O 86.308 28.798 1.37712
O 82.2407 27.4353 4.10455
O 81.567 29.6027 2.7407
O 82.2408 27.4353 1.37714
O 81.0805 36.3051 0.0127749
Si 82.6697 36.7336 0.0130889
Si 79.6897 35.4306 0.0130353
O 82.5069 32.9536 0.0129477
Si 83.9175 33.8018 0.0132113
Si 80.9125 32.5574 0.0131878
O 84.678 33.2702 1.37692
O 83.682 35.433 0.0132191
O 84.6781 33.2703 4.10433
O 80.6882 31.6951 1.37688
O 79.9011 33.8238 0.0132216
O 80.6881 31.6952 4.1043
O 79.061 40.4907 2.7409
Si 80.6253 41.0026 2.74064
Si 77.7183 39.544 2.74064
O 80.6625 37.2193 2.74067
Si 82.0263 38.1408 2.74052
Si 79.0913 36.7396 2.74047
O 82.8141 37.6502 4.10419
O 81.705 39.7573 2.74059
O 82.814 37.6503 1.37677
O 78.9129 35.8666 4.1041
O 78.0144 37.9506 2.74059
O 78.9129 35.8668 1.37671
O 76.8226 44.5634 0.0130146
Si 78.3577 45.1572 0.0132381
Si 75.5317 43.5472 0.0132327
O 78.5951 41.3815 0.0129589
Si 79.9084 42.3737 0.0132073
Si 77.0514 40.8195 0.0132058
O 80.7209 41.9255 1.37691
O 79.5019 43.9709 0.013234
O 80.721 41.9255 4.10436
O 76.9195 39.9384 1.37695
O 75.9118 41.9718 0.0131878
O 76.9194 39.9384 4.10433
O -79.0631 -40.4355 2.73799
Si -80.6271 -40.9485 2.73874
Si -77.7212 -39.4877 2.73894
O -80.6673 -37.1653 2.73797
Si -82.0304 -38.088 2.73791
Si -79.0964 -36.6844 2.73779
O -82.8184 -37.5979 4.10154
O -81.7077 -39.7042 2.73815
O -82.8182 -37.5981 1.3741
O -78.9185 -35.8113 4.10139
O -78.0185 -37.8946 2.73796
O -78.9184 -35.8117 1.37397
O -76.8203 -44.5056 0.00899362
Si -78.3551 -45.1004 0.00953203
Si -75.5302 -43.4885 0.00940156
O -78.5962 -41.3256 0.0132217
Si -79.9088 -42.3187 0.0113936
Si -77.0529 -40.7624 0.0116153
O -80.7218 -41.872 1.37535
O -79.5006 -43.9154 0.0101938
O -80.7219 -41.8709 4.10282
O -76.9213 -39.8819 1.37576
O -75.912 -41.9135 0.010047
O -76.9225 -39.8807 4.10309
O -74.3674 -48.4526 2.73635
Si -75.8689 -49.127 2.73631
Si -73.1323 -47.3693 2.73626
O -76.307 -45.3698 2.73708
Si -77.5657 -46.4305 2.73691
Si -74.7954 -44.7263 2.73682
O -78.4012 -46.0268 4.10048
O -77.0746 -48.0036 2.73672
O -78.401 -46.027 1.37322
O -74.7112 -43.8393 4.1005
O -73.5959 -45.8163 2.7368
O -74.7111 -43.8397 1.3729
O -71.7125 -52.2666 0.00817899
Si -73.1767 -53.0184 0.00852467
Si -70.5355 -51.1204 0.00849765
O -73.8099 -49.289 0.00859954
Si -75.0114 -50.414 0.00885257
Si -72.3339 -48.5675 0.00881647
O -75.8667 -50.0545 1.3725
O -74.4393 -51.9594 0.00878786
O -75.8667 -50.0547 4.09997
O -72.2962 -47.6772 1.37247
O -71.0793 -49.5936 0.00887066
O -72.2959 -47.6774 4.09982
O 68.8677 55.9979 2.74092
Si 70.2908 56.8249 2.74068
Si 67.7519 54.792 2.74067
O 71.117 53.1332 2.74065
Si 72.2584 54.3192 2.74051
Si 69.6805 52.3359 2.74046
O 73.1313 54.0045 4.10414
O 71.6067 55.8328 2.74063
O 73.1312 54.0045 1.37679
O 69.6891 51.4448 4.10413
O 68.3744 53.2955 2.74063
O 69.689 51.445 1.37664
O 65.8307 59.5159 0.0132541
Si 67.2088 60.416 0.0134352
Si 64.7793 58.2535 0.0134401
O 68.2262 56.7723 0.0129789
Si 69.3042 58.0161 0.0132576
Si 66.8333 55.9011 0.0132381
O 70.1921 57.7473 1.37694
O 68.5745 59.4937 0.0133656
O 70.1922 57.7474 4.10439
O 66.8882 55.0117 1.37697
O 65.4789 56.7915 0.0133227
O 66.8881 55.0116 4.10434
O 62.6144 62.8708 2.74118
Si 63.9437 63.8414 2.74092
Si 61.63 61.5555 2.74092
O 65.1497 60.2558 2.7411
Si 66.1614 61.5541 2.74087
Si 63.804 59.3133 2.74088
O 67.0622 61.3321 4.10455
O 65.3557 62.9917 2.74086
O 67.0622 61.332 1.3772
O 63.9052 58.4279 4.10464
O 62.405 60.1318 2.74082
O 63.9053 58.4279 1.37715
O 59.228 66.0542 0.0132928
Si 60.5051 67.0926 0.0134964
Si 58.3134 64.6895 0.0134836
O 61.8956 63.5744 0.01326
Si 62.8385 64.9235 0.0134944
Si 60.6008 62.5631 0.0134916
O 63.7496 64.7485 1.37719
O 61.9593 66.3173 0.0135164
O 63.7497 64.7486 4.10465
O 60.7481 61.6842 1.37725
O 59.1612 63.308 0.0134792
O 60.7481 61.6841 4.10462
O -62.613 -62.8124 2.73577
Si -63.9427 -63.7824 2.73558
Si -61.6281 -61.4975 2.73556
O -65.1467 -60.1961 2.73585
Si -66.159 -61.494 2.73565
Si -63.8007 -59.2541 2.73563
O -67.0596 -61.2718 4.09932
O -65.3542 -62.932 2.73562
O -67.0595 -61.2718 1.37194
O -63.9016 -58.3686 4.09933
O -62.4022 -60.0734 2.7356
O -63.9016 -58.3687 1.37188
O -59.2292 -65.9979 0.00788892
Si -60.5069 -67.0356 0.00813466
Si -58.3139 -64.6337 0.00811738
O -61.895 -63.5163 0.00790341
Si -62.8386 -64.865 0.0081489
Si -60.5997 -62.5057 0.00812247
O -63.7495 -64.6896 1.37185
O -61.9605 -66.2594 0.00816635
O -63.7495 -64.6897 4.09928
O -60.7464 -61.6267 1.37184
O -59.1607 -63.2516 0.0081072
O -60.7463 -61.6267 4.09925
O -55.6845 -69.0034 2.73564
Si -56.9066 -70.1059 2.73546
Si -54.8411 -67.5934 2.73543
O -58.4757 -66.6637 2.73581
Si -59.3481 -68.0594 2.73556
Si -57.2345 -65.5873 2.73555
O -60.2668 -67.9316 4.09927
O -58.3986 -69.4063 2.7355
O -60.2668 -67.9316 1.37186
O -57.4265 -64.717 4.09927
O -55.7586 -66.2573 2.73542
O -57.4266 -64.717 1.37186
O -51.9888 -71.8212 0.00761051
Si -53.1521 -72.9857 0.00792545
Si -51.2197 -70.3695 0.00784928
O -54.8973 -69.6291 0.00779642
Si -55.6962 -71.0682 0.00802512
Si -53.7137 -68.4898 0.00799397
O -56.6203 -70.9882 1.37172
O -54.6783 -72.3642 0.00804348
O -56.6203 -70.9883 4.09916
O -53.9507 -67.6307 1.37173
O -52.2051 -69.0825 0.00791969
O -53.9507 -67.6306 4.09914
O 48.145 74.4947 2.74129
Si 49.2456 75.7186 2.74106
Si 47.4533 73.0045 2.74104
O 51.1647 72.4581 2.7412
Si 51.8869 73.9371 2.741
Si 50.0425 71.2582 2.74099
O 52.8141 73.9054 4.10469
O 50.8023 75.178 2.74104
O 52.814 73.9054 1.37726
O 50.3242 70.4125 4.10466
O 48.5049 71.771 2.74104
O 50.3242 70.4126 1.37727
O 44.1749 76.9113 0.0136202
Si 45.2103 78.1908 0.0138126
Si 43.5616 75.3871 0.0137968
O 47.2968 75.0351 0.0133306
Si 47.9411 76.5497 0.0136334
Si 46.2385 73.7785 0.0136031
O 48.8687 76.5663 1.37733
O 46.7932 77.7322 0.0137561
O 48.8687 76.5664 4.10474
O 46.5638 72.9488 1.3773
O 44.6762 74.2103 0.0136904
O 46.5637 72.9487 4.10472
O 40.0845 79.1181 2.74169
Si 41.052 80.4497 2.74136
Si 39.5512 77.5642 2.74139
O 43.2996 77.4066 2.74146
Si 43.8643 78.9527 2.74125
Si 42.308 76.0967 2.74123
O 44.7897 79.0177 4.10493
O 42.6566 80.0739 2.74122
O 44.7897 79.0176 1.37757
O 42.6761 75.285 4.10499
O 40.7254 76.4468 2.74109
O 42.6762 75.285 1.37752
O 35.8857 81.1107 0.0134729
Si 36.7827 82.4908 0.0136416
Si 35.4339 79.5312 0.0136844
O 39.1849 79.5676 0.0137944
Si 39.6685 81.141 0.0139222
Si 38.2627 78.2079 0.0139491
O 40.5892 81.2537 1.37771
O 38.4045 82.1983 0.0136852
O 40.5894 81.2537 4.10511
O 38.6721 77.4165 1.37779
O 36.6642 78.4758 0.0135404
O 38.6725 77.4162 4.1052
O -44.1845 -76.8642 0.0124156
O -40.0965 -79.0753 2.73573
Si -41.0649 -80.4062 2.7357
Si -39.5622 -77.5217 2.73556
O -43.3099 -77.3606 2.73396
Si -43.8757 -78.9062 2.73631
Si -42.3174 -76.0513 2.73661
O -44.8006 -78.97 4.10031
O -42.6691 -80.0287 2.736
O -44.8016 -78.9705 1.37287
O -42.684 -75.2401 4.10091
O -40.7352 -76.403 2.73545
O -42.6852 -75.2384 1.37352
O -35.8987 -81.0701 0.00775983
Si -36.7965 -82.4497 0.00809264
Si -35.4461 -79.4908 0.00801319
O -39.1973 -79.5255 0.00793037
Si -39.6818 -81.0985 0.00824777
Si -38.2743 -78.1664 0.00812204
O -40.6028 -81.2105 1.37195
O -38.4182 -82.1565 0.00828561
O -40.6027 -81.2107 4.0993
O -38.6832 -77.3746 1.37183
O -36.6759 -78.435 0.00801285
O -38.6833 -77.3745 4.09933
O -31.6024 -82.8429 2.73568
Si -32.427 -84.2674 2.73551
Si -31.2327 -81.2421 2.73547
O -34.9771 -81.4727 2.73568
Si -35.379 -83.0688 2.73552
Si -34.1263 -80.0673 2.73545
O -36.2929 -83.2289 4.09917
O -34.0618 -84.0593 2.73555
O -36.2928 -83.2288 1.37179
O -34.576 -79.2979 4.09915
O -32.516 -80.252 2.73542
O -34.5761 -79.2979 1.37173
Si -27.9686 -85.8553 0.00813545
Si -26.9339 -82.7719 0.00811644
O -30.661 -83.197 0.00781638
Si -30.979 -84.8119 0.00807695
Si -29.8846 -81.7491 0.00803436
O -31.8834 -85.0193 1.37179
O -29.6121 -85.7325 0.00814543
O -31.8833 -85.0193 4.09918
O -30.3739 -81.0042 1.37173
O -28.267 -81.8498 0.00806219
O -30.3739 -81.0041 4.09919
O 27.2055 84.4259 0.0135441
O 22.7475 85.7386 2.74176
Si 23.4184 87.2417 2.74139
Si 22.5475 84.108 2.74142
O 26.2471 84.7295 2.74131
Si 26.4795 86.359 2.74104
Si 25.5481 83.2428 2.74108
O 27.3714 86.614 4.10477
O 25.0659 87.206 2.74107
O 27.3716 86.6139 1.37739
O 26.0757 82.5248 4.10488
O 23.9273 83.2577 2.74095
O 26.076 82.5247 1.37744
O 18.2271 86.8175 0.0136831
Si 18.8187 88.3535 0.0139219
Si 18.1125 85.1786 0.0139132
O 21.7746 85.992 0.0138122
Si 21.9217 87.6314 0.0139699
Si 21.154 84.4708 0.0139913
O 22.799 87.9325 1.37775
O 20.4659 88.4037 0.013896
O 22.7992 87.9325 4.10515
O 21.7183 83.7813 1.37782
O 19.5347 84.4013 0.0137295
O 21.7187 83.7811 4.10525
O 13.6566 87.6591 2.74135
Si 14.1672 89.2239 2.74117
Si 13.6277 86.0165 2.74114
O 17.2423 87.0198 2.74166
Si 17.3037 88.6646 2.74135
Si 16.702 85.4683 2.74135
O 18.1642 89.0111 4.10509
O 15.8095 89.3599 2.74124
O 18.1643 89.011 1.37764
O 17.3015 84.8091 4.10509
O 15.0885 85.3145 2.74116
O 17.3018 84.8091 1.37771
Si 9.47645 89.8506 0.013599
Si 9.10536 86.6194 0.0135773
O 12.6626 87.8099 0.0135076
Si 12.6379 89.4557 0.0137346
Si 12.2041 86.2323 0.0137099
O 13.4793 89.8464 1.37746
O 11.1095 90.0721 0.013711
O 13.4793 89.8465 4.10485
O 12.8373 85.6053 1.37742
O 10.6009 85.9945 0.0136948
O 12.8372 85.6052 4.10485
O -18.2413 -86.7865 0.00794198
O -13.67 -87.6276 2.73586
Si -14.1806 -89.1924 2.73564
Si -13.6412 -85.985 2.73562
O -17.2561 -86.989 2.73584
Si -17.3175 -88.6338 2.73562
Si -16.7157 -85.4375 2.7356
O -18.1785 -88.98 4.09933
O -15.8231 -89.3288 2.73562
O -18.1784 -88.98 1.37189
O -17.3153 -84.7783 4.09929
O -15.1023 -85.2834 2.73559
O -17.3153 -84.7783 1.37191
O -9.06091 -88.2266 0.00799633
Si -9.48886 -89.816 0.00823694
Si -9.11802 -86.5847 0.0082114
O -12.6755 -87.7775 0.00794833
Si -12.6508 -89.4233 0.00820776
Si -12.2172 -86.1999 0.00818674
O -13.4922 -89.8145 1.37188
O -11.1218 -90.0386 0.00826154
O -13.4922 -89.8146 4.09937
O -12.8508 -85.5734 1.37194
O -10.614 -85.961 0.00822544
O -12.8508 -85.5733 4.09928
O -4.42699 -88.5857 2.73596
Si -4.77143 -90.1952 2.73576
Si -4.56963 -86.949 2.73573
O -8.05985 -88.3245 2.73585
Si -7.94926 -89.9667 2.73567
Si -7.6846 -86.725 2.73565
O -8.76905 -90.4013 4.09932
O -6.39062 -90.502 2.73571
O -8.76901 -90.4012 1.37198
O -8.3501 -86.1323 4.09937
O -6.09593 -86.4035 2.73568
O -8.35007 -86.1323 1.37188
Si -0.0406777 -90.3298 0.00840854
Si -0.00871774 -87.0775 0.00837431
O -3.42233 -88.632 0.00807534
Si -3.22618 -90.2663 0.00832973
Si -3.13092 -87.0152 0.00830213
O -4.02228 -90.7426 1.37208
O -1.64184 -90.7201 0.00841199
O -4.02226 -90.7427 4.09941
O -3.82621 -86.4576 1.37198
O -1.56116 -86.6118 0.008341
O -3.82621 -86.4576 4.09948
O -0.231059 88.7369 0.0133101
Si -0.00247369 87.11 0.0135853
O -4.87653 88.6093 2.74138
Si -4.70267 90.2461 2.74126
Si -4.56295 86.9967 2.74117
O -1.23631 88.7299 2.74121
Si -1.51841 90.3515 2.74105
Si -1.44205 87.1 2.74103
O -0.748506 90.8693 4.10471
O -3.12452 90.7208 2.74126
O -0.748645 90.8693 1.37728
O -0.718478 86.5798 4.10464
O -2.9881 86.6138 2.74132
O -0.718751 86.5799 1.37724
O -9.50878 88.2379 0.0153236
Si -9.42102 89.8815 0.0153136
Si -9.11099 86.6439 0.0155408
O -5.87991 88.5497 0.0133814
Si -6.24672 90.1543 0.0138651
Si -5.99992 86.9113 0.0137425
O -5.50499 90.7117 1.3775
O -7.87003 90.4386 0.0143782
O -5.50529 90.7118 4.10487
O -5.25004 86.4298 1.37733
O -7.51821 86.3445 0.0141891
O -5.25046 86.4297 4.10477
O -14.1149 87.6228 2.74127
Si -14.1134 89.2688 2.7413
Si -13.6341 86.0519 2.7412
O -10.5075 88.1253 2.74395
Si -10.958 89.7085 2.74277
Si -10.5414 86.4828 2.74301
O -10.2474 90.3043 4.10678
O -12.594 89.9069 2.74175
O -10.2462 90.3042 1.37939
O -9.76836 86.0413 4.1072
O -12.0278 85.8368 2.74158
O -9.76657 86.0417 1.37972
Si -18.7672 88.4118 0.0135924
O -15.1063 87.458 0.013549
Si -15.639 89.0154 0.013842
Si -15.0542 85.8159 0.0137578
O -14.96 89.6477 1.37747
O -17.2831 89.1282 0.0138489
O -14.9603 89.6477 4.10494
O -14.258 85.4159 1.37741
O -16.5049 85.0933 0.013899
O -14.2583 85.4158 4.10476
O 9.49809 -88.21 0.00843271
Si 9.10076 -86.616 0.00861134
O 14.1047 -87.5956 2.73657
Si 14.1031 -89.2416 2.73653
Si 13.6242 -86.0246 2.7363
O 10.4972 -88.0976 2.73623
Si 10.9473 -89.6808 2.73618
Si 10.5314 -86.4551 2.73605
O 10.2357 -90.2765 4.0998
O 12.5834 -89.8794 2.7365
O 10.2359 -90.2764 1.37242
O 9.75753 -86.0137 4.09981
O 12.0179 -85.8093 2.73597
O 9.75738 -86.0137 1.37235
O 18.6729 -86.7409 0.0123374
Si 18.7575 -88.3847 0.0108896
Si 18.1108 -85.1972 0.0114741
O 15.0966 -87.4308 0.00852297
Si 15.6291 -88.9883 0.00914177
Si 15.0445 -85.7888 0.00886726
O 14.9498 -89.6204 1.3727
O 17.2733 -89.101 0.00981508
O 14.9502 -89.6205 4.10018
O 14.2486 -85.3887 1.37269
O 16.4953 -85.0662 0.00880476
O 14.2483 -85.3886 4.10002
O 23.1902 -85.6485 2.73323
Si 23.3607 -87.2856 2.73661
Si 22.548 -84.1364 2.73623
O 19.6548 -86.5246 2.73854
Si 20.2682 -88.052 2.73827
Si 19.5169 -84.8875 2.73885
O 19.6235 -88.7186 4.10229
O 21.916 -88.0787 2.73751
O 19.6226 -88.719 1.37488
O 18.7026 -84.5293 4.10348
O 20.9279 -84.09 2.73651
O 18.6992 -84.5298 1.37606
Si 27.8999 -85.9475 0.00996457
O 24.1594 -85.3812 0.0118029
Si 24.8518 -86.8744 0.00940395
Si 23.9361 -83.7535 0.00907582
O 24.2422 -87.5746 1.37278
O 26.4987 -86.8149 0.00976909
O 24.2427 -87.5735 4.10023
O 23.1021 -83.4383 1.37259
O 25.3035 -82.8834 0.00931987
O 23.1027 -83.4391 4.09994
O -27.6538 84.3512 0.013268
Si -26.9334 82.8747 0.0134996
O -32.0323 82.7938 2.74119
Si -32.3731 84.4041 2.74095
Si -31.2355 81.3571 2.74094
O -28.6077 84.034 2.74115
Si -29.3774 85.4889 2.74094
Si -28.2995 82.4203 2.74093
O -28.8053 86.2193 4.10466
O -31.019 85.3435 2.74093
O -28.8053 86.2192 1.3772
O -27.4506 82.1492 4.10459
O -29.6195 81.48 2.74091
O -27.4507 82.1492 1.37725
O -36.3226 81.0075 0.0132535
Si -36.7473 82.5977 0.0135155
Si -35.4516 79.6145 0.0134862
O -32.9681 82.4266 0.013259
Si -33.813 83.8391 0.013521
Si -32.5757 80.8313 0.0135049
O -33.2802 84.5986 1.37723