2592
 Atoms. Timestep: 16428
O -22.6706 48.1818 1.70361
Si -23.1103 49.7682 1.70071
Si -21.7743 46.8069 1.69948
O -19.3099 49.6333 1.70371
Si -20.163 51.0413 1.70105
Si -18.924 48.038 1.6999
O -19.6076 51.7973 3.06666
O -21.8014 50.7862 1.70064
O -19.6074 51.7972 0.335612
O -18.1346 47.7743 3.09342
O -20.1784 47.0273 1.61515
O -18.031 47.8139 0.362391
O -26.7778 46.0133 -1.029
Si -27.3542 47.5554 -1.03084
Si -25.765 44.7218 -1.03208
O -23.5564 47.7522 -1.02892
Si -24.529 49.0805 -1.03042
Si -23.0328 46.1967 -1.03163
O -24.0416 49.882 0.335201
O -26.139 48.6835 -1.03074
O -24.0415 49.8823 3.06631
O -22.2232 46.0033 0.361825
O -24.1944 45.0803 -1.11589
O -22.1239 46.0512 3.0928
O -43.6847 30.3519 1.70248
Si -44.858 31.5066 1.70024
Si -42.2215 29.6083 1.69907
O -41.498 33.2874 1.70227
Si -42.9403 34.0811 1.70013
Si -40.3667 32.0983 1.69901
O -42.8368 35.0134 3.06571
O -44.2325 33.0421 1.70003
O -42.8368 35.0134 0.334651
O -39.55 32.2655 3.09175
O -40.9485 30.5959 1.61707
O -39.4819 32.3491 0.360715
O -46.1609 26.4228 -1.03048
Si -47.4302 27.4712 -1.03085
Si -44.6387 25.8091 -1.03219
O -44.2379 29.5372 -1.02885
Si -45.7437 30.2027 -1.03081
Si -43.0074 28.451 -1.03197
O -45.7217 31.1404 0.334768
O -46.9406 29.0553 -1.03087
O -45.7217 31.1405 3.06582
O -42.2081 28.6891 0.360542
O -43.4563 26.9036 -1.11317
O -42.1481 28.7774 3.09155
O -53.0063 4.41633 1.70256
Si -54.5991 4.83241 1.70051
Si -51.3671 4.50112 1.6992
O -52.5741 8.05113 1.70233
Si -54.2201 8.02017 1.70069
Si -51.0006 7.5844 1.6996
O -54.5952 8.87989 3.06631
O -54.8223 6.47536 1.70049
O -54.5953 8.88004 0.335253
O -50.3762 8.13654 3.09243
O -50.756 5.99191 1.61721
O -50.3586 8.24295 0.361334
O -53.1947 -0.224215 -1.02812
Si -54.8177 0.0518996 -1.03028
Si -51.5692 0.00266185 -1.03125
O -53.0799 3.43442 -1.02868
Si -54.717 3.26054 -1.03055
Si -51.4718 3.1061 -1.03186
O -55.1653 4.08455 0.334993
O -55.1827 1.66926 -1.03059
O -55.1654 4.08452 3.06606
O -50.8975 3.71069 0.360777
O -51.0899 1.54086 -1.11389
O -50.8894 3.81764 3.09183
O -52.9793 -4.86349 1.70296
Si -54.6202 -4.72947 1.70034
Si -51.3797 -4.4963 1.69907
O -53.1828 -1.20878 1.70339
Si -54.7985 -1.52423 1.70078
Si -51.5522 -1.39613 1.69983
O -55.3169 -0.742536 3.06645
O -55.1243 -3.14994 1.70032
O -55.3168 -0.742193 0.335373
O -51.0326 -0.744428 3.0927
O -51.0358 -2.92222 1.61706
O -51.034 -0.636192 0.36165
O -52.3618 -9.46664 -1.02831
Si -54.008 -9.47568 -1.03077
Si -50.8001 -8.96172 -1.03186
O -52.8819 -5.84333 -1.02935
Si -54.4642 -6.29801 -1.03077
Si -51.2413 -5.88829 -1.03203
O -55.0483 -5.56406 0.334819
O -54.6475 -7.94589 -1.03087
O -55.0485 -5.56407 3.06588
O -50.7804 -5.19357 0.360673
O -50.5942 -7.36381 -1.11419
O -50.7908 -5.08671 3.09169
O -51.346 -13.9985 1.70243
Si -52.9852 -14.1507 1.70029
Si -49.8341 -13.3597 1.69914
O -52.1796 -10.4342 1.70211
Si -53.7163 -11.0248 1.70026
Si -50.5412 -10.3364 1.69916
O -54.3621 -10.3444 3.06584
O -53.7554 -12.6824 1.70015
O -54.3622 -10.3444 0.334787
O -50.1424 -9.60444 3.09196
O -49.7682 -11.75 1.61662
O -50.1623 -9.4984 0.360925
O -49.94 -18.425 -1.02871
Si -51.5598 -18.719 -1.03068
Si -48.4894 -17.6571 -1.03184
O -51.0802 -14.9466 -1.0286
Si -52.5598 -15.6685 -1.03076
Si -49.4566 -14.7066 -1.03192
O -53.2623 -15.0469 0.334815
O -52.4546 -17.3232 -1.03089
O -53.2623 -15.0469 3.06587
O -49.1229 -13.9429 0.360937
O -48.5636 -16.0477 -1.1147
O -49.152 -13.8388 3.09198
O -48.1548 -22.7125 1.70351
Si -49.7428 -23.1464 1.70036
Si -46.7765 -21.8212 1.6992
O -49.593 -19.3463 1.70283
Si -51.0041 -20.1942 1.70039
Si -47.9964 -18.966 1.69921
O -51.758 -19.6361 3.06601
O -50.7556 -21.8336 1.70012
O -51.758 -19.6359 0.33494
O -47.7301 -18.1765 3.09219
O -46.9904 -20.2245 1.61585
O -47.7685 -18.0748 0.361173
O -46.0024 -26.8279 -1.02759
Si -47.5466 -27.3984 -1.03073
Si -44.7071 -25.8199 -1.03193
O -47.7289 -23.6 -1.02962
Si -49.0608 -24.5676 -1.03077
Si -46.1715 -23.0822 -1.03195
O -49.8603 -24.0771 0.334877
O -48.6702 -26.179 -1.03089
O -49.8606 -24.0772 3.0659
O -45.975 -22.2729 0.361262
O -45.0596 -24.248 -1.1158
O -46.022 -22.1742 3.09231
O -43.4993 -30.7398 1.70209
Si -44.9879 -31.4427 1.7005
Si -42.2967 -29.6228 1.69943
O -45.5006 -27.6746 1.70131
Si -46.7431 -28.7546 1.70025
Si -43.9941 -27.0232 1.69901
O -47.5824 -28.3357 3.06583
O -46.2135 -30.3258 1.7003
O -47.5827 -28.3359 0.334815
O -43.8689 -26.2002 3.09242
O -42.7849 -28.0876 1.61476
O -43.9247 -26.1054 0.361301
O -40.6661 -34.4196 -1.02889
Si -42.0878 -35.2496 -1.0307
Si -39.5655 -33.2021 -1.03176
O -42.926 -31.5398 -1.02736
Si -44.0696 -32.724 -1.0305
Si -41.482 -30.7595 -1.03157
O -44.9423 -32.3798 0.335105
O -43.4056 -34.2433 -1.03081
O -44.9422 -32.3795 3.06614
O -41.4282 -29.929 0.361995
O -40.1851 -31.7151 -1.11683
O -41.4932 -29.8388 3.09308
O -37.5222 -37.838 1.70293
Si -38.8662 -38.7888 1.70026
Si -36.5322 -36.529 1.69901
O -40.0254 -35.1666 1.70312
Si -41.0614 -36.4461 1.70038
Si -38.655 -34.2635 1.69932
O -41.9607 -36.1793 3.06599
O -40.267 -37.9016 1.70015
O -41.9607 -36.1791 0.334886
O -38.6736 -33.4317 3.09299
O -37.2796 -35.102 1.61383
O -38.7464 -33.3471 0.362015
O -34.0913 -40.968 -1.02804
Si -35.347 -42.0326 -1.0304
Si -33.2193 -39.5775 -1.03148
O -36.8185 -38.5259 -1.02933
Si -37.7388 -39.8909 -1.03082
Si -35.5322 -37.5065 -1.0321
O -38.6581 -39.7036 0.334728
O -36.82 -41.2713 -1.03075
O -38.6582 -39.7037 3.06582
O -35.6238 -36.6796 0.361598
O -34.0886 -38.2213 -1.11724
O -35.7033 -36.6016 3.09264
O -30.4006 -43.7873 1.70315
Si -31.5585 -44.9576 1.70061
Si -29.6535 -42.3259 1.69948
O -33.3303 -41.592 1.70319
Si -34.1277 -43.0323 1.70067
Si -32.138 -40.4641 1.69957
O -35.0597 -42.926 3.06632
O -33.0922 -44.3274 1.70039
O -35.0599 -42.9258 0.335233
O -32.3008 -39.6486 3.09346
O -30.6377 -41.0506 1.61362
O -32.3877 -39.5774 0.362426
O -26.4772 -46.2726 -1.02812
Si -27.5283 -47.5397 -1.03061
Si -25.8609 -44.7514 -1.03196
O -29.5882 -44.3425 -1.02844
Si -30.2565 -45.847 -1.03047
Si -28.499 -43.1147 -1.03159
O -31.1943 -45.8224 0.335172
O -29.1115 -47.0463 -1.03068
O -31.1945 -45.8224 3.06618
O -28.7324 -42.3166 0.362349
O -26.9531 -43.5674 -1.1178
O -28.8253 -42.2531 3.09345
O -22.3511 -48.4043 1.70347
Si -23.2872 -49.7585 1.70097
Si -21.8704 -46.835 1.70009
O -25.6192 -46.7542 1.70203
Si -26.1533 -48.3114 1.70042
Si -24.6417 -45.4357 1.69905
O -27.0898 -48.3691 3.06597
O -24.9075 -49.4058 1.7005
O -27.0898 -48.3692 0.334924
O -24.9442 -44.6613 3.09302
O -23.0621 -45.7513 1.61291
O -25.0422 -44.6061 0.361939
O -18.0544 -50.1671 -1.02902
Si -18.8684 -51.5981 -1.03076
Si -17.713 -48.5617 -1.03218
O -21.4543 -48.809 -1.02728
Si -21.8499 -50.407 -1.03007
Si -20.596 -47.41 -1.03096
O -22.7776 -50.5466 0.335635
O -20.5133 -51.3883 -1.0306
O -22.778 -50.5463 3.06665
O -20.9643 -46.6653 0.363422
O -18.995 -47.5864 -1.11854
O -21.0685 -46.6184 3.09451
O -13.6198 -51.5462 1.70404
Si -14.3053 -53.0429 1.70084
Si -13.4203 -49.9171 1.69998
O -17.1257 -50.4916 1.70246
Si -17.3799 -52.1182 1.7003
Si -16.3932 -49.0229 1.69889
O -18.292 -52.3384 3.06581
O -15.9622 -52.9784 1.70038
O -18.2918 -52.3384 0.334748
O -16.8258 -48.3131 3.09298
O -14.7828 -49.0581 1.61235
O -16.9326 -48.2759 0.361934
O -9.08135 -52.5315 -1.02767
Si -9.63309 -54.0825 -1.03046
Si -9.02528 -50.8912 -1.03162
O -12.6662 -51.7879 -1.02827
Si -12.7768 -53.4305 -1.03025
Si -12.0651 -50.2606 -1.03112
O -13.6659 -53.7298 0.335424
O -11.2893 -54.1633 -1.03059
O -13.6663 -53.7299 3.06649
O -12.5577 -49.5919 0.363346
O -10.4578 -50.1547 -1.11845
O -12.6686 -49.5636 3.0944
O -4.47415 -53.1162 1.70291
Si -4.88795 -54.7097 1.70052
Si -4.56186 -51.4773 1.69932
O -8.11016 -52.689 1.70235
Si -8.07667 -54.3349 1.70054
Si -7.64521 -51.1149 1.6994
O -8.93624 -54.7108 3.06616
O -6.5308 -54.9349 1.70038
O -8.93634 -54.7109 0.335086
O -8.19493 -50.4917 3.09357
O -6.05332 -50.8688 1.61305
O -8.30673 -50.4734 0.362497
O 0.166672 -53.2951 -1.02878
Si -0.106065 -54.9186 -1.03065
Si -0.0641667 -51.6701 -1.03177
O -3.49282 -53.1881 -1.02844
Si -3.31535 -54.8248 -1.03055
Si -3.16744 -51.5794 -1.03173
O -4.13873 -55.2746 0.335061
O -1.72284 -55.287 -1.03079
O -4.13887 -55.2746 3.06611
O -3.77004 -51.0066 0.362213
O -1.60325 -51.1947 -1.1176
O -3.88228 -50.9983 3.09329
O 4.80527 -53.0666 1.70116
Si 4.67565 -54.7078 1.69989
Si 4.43321 -51.4681 1.69875
O 1.15064 -53.2805 1.70323
Si 1.47054 -54.8954 1.70042
Si 1.33387 -51.6495 1.69932
O 0.689826 -55.4157 3.06604
O 3.09737 -55.2164 1.69995
O 0.689557 -55.4156 0.335006
O 0.683134 -51.1316 3.09315
O 2.85837 -51.1291 1.61375
O 0.571061 -51.1334 0.36208
O 9.40622 -52.4338 -1.03063
Si 9.42053 -54.08 -1.03176
Si 8.89598 -50.8739 -1.03288
O 5.78433 -52.9661 -1.02781
Si 6.24413 -54.5468 -1.03112
Si 5.82427 -51.3252 -1.03221
O 5.51189 -55.1335 0.334449
O 7.89274 -54.7245 -1.0316
O 5.51172 -55.1332 3.06552
O 5.13015 -50.8662 0.361359
O 7.29747 -50.6736 -1.11721
O 5.0196 -50.8779 3.09241
O 30.6438 -43.4878 1.69864
Si 31.3525 -44.9737 1.69739
Si 29.5222 -42.2895 1.6963
O 27.5865 -45.5009 1.70114
Si 28.6713 -46.7393 1.69788
Si 26.9291 -43.9971 1.69674
O 28.256 -47.5805 3.06342
O 30.2404 -46.2036 1.69748
O 28.2557 -47.5802 0.332396
O 26.1046 -43.8752 3.08964
O 27.9887 -42.7835 1.61366
O 26.0117 -43.9312 0.358587
O 34.3124 -40.6401 -1.03162
Si 35.1476 -42.0587 -1.03404
Si 33.091 -39.5437 -1.03531
O 31.4417 -42.911 -1.03052
Si 32.63 -44.0504 -1.03362
Si 30.6559 -41.47 -1.03468
O 32.2893 -44.9245 0.331933
O 34.1467 -43.3805 -1.034
O 32.2891 -44.9243 3.06301
O 29.8238 -41.4205 0.358149
O 31.6062 -40.169 -1.11739
O 29.7363 -41.4841 3.08922
O 48.2578 -22.2957 1.69776
Si 49.6125 -23.2311 1.69604
Si 46.6883 -21.8154 1.69471
O 46.61 -25.5636 1.69837
Si 48.1675 -26.0968 1.69647
Si 45.2906 -24.5873 1.6952
O 48.2268 -27.0325 3.06211
O 49.2613 -24.8512 1.69616
O 48.2268 -27.0327 0.331042
O 44.5154 -24.892 3.08827
O 45.6047 -23.0074 1.61108
O 44.4622 -24.9869 0.357193
O 53.1712 0.21233 -1.03114
Si 51.4516 -18.8157 -1.03496
Si 48.4157 -17.659 -1.03615
O 48.662 -21.3997 -1.03263
Si 50.26 -21.7956 -1.035
Si 47.2631 -20.5413 -1.03637
O 50.4002 -22.7227 0.330565
O 51.2419 -20.4601 -1.03508
O 50.4002 -22.7225 3.06155
O 46.5175 -20.911 0.357117
O 47.4395 -18.9403 -1.12208
O 46.4721 -21.0119 3.0882
O 52.9503 4.85157 1.6985
Si 54.5912 4.71875 1.69677
Si 51.3511 4.48211 1.69523
O 53.1585 1.19615 1.70027
Si 54.7739 1.5135 1.69756
Si 51.5278 1.38231 1.69655
O 55.2929 0.732039 3.06323
O 55.0974 3.13978 1.69704
O 55.2928 0.731765 0.332133
O 51.009 0.73403 3.09125
O 51.0102 2.90772 1.60863
O 51.0105 0.618513 0.360214
O 52.3246 9.45312 -1.03247
Si 53.9709 9.46358 -1.03405
Si 50.7636 8.94611 -1.03527
O 52.851 5.83053 -1.03211
Si 54.4327 6.28696 -1.03428
Si 51.2102 5.87361 -1.0358
O 55.0182 5.55387 0.331165
O 54.613 7.93506 -1.03422
O 55.0181 5.55409 3.06231
O 50.7504 5.18093 0.358251
O 50.561 7.34795 -1.12151
O 50.7617 5.06883 3.08917
O 51.3045 13.9829 1.69926
Si 52.9436 14.1361 1.69703
Si 49.7932 13.3425 1.69571
O 52.141 10.4196 1.70022
Si 53.6772 11.0115 1.69707
Si 50.5027 10.3201 1.69589
O 54.3241 10.3325 3.06264
O 53.7151 12.6688 1.69689
O 54.3238 10.3323 0.33158
O 50.1044 9.59004 3.08983
O 49.7288 11.7329 1.61022
O 50.1256 9.47962 0.358668
O 49.8976 18.4072 -1.03055
Si 51.5172 18.7019 -1.03328
Si 48.4475 17.6383 -1.03426
O 51.0389 14.9295 -1.0321
Si 52.5179 15.6524 -1.034
Si 49.4153 14.6886 -1.03534
O 53.2207 15.0319 0.331567
O 52.4126 17.3068 -1.03379
O 53.2208 15.032 3.06253
O 49.0814 13.9267 0.358331
O 48.5223 16.0292 -1.12028
O 49.1115 13.8193 3.08942
O 48.112 22.6922 1.7016
Si 49.7 23.1264 1.6982
Si 46.7341 21.8005 1.69699
O 49.551 19.3269 1.69979
Si 50.9617 20.1755 1.69779
Si 47.9545 18.9462 1.69678
O 51.7157 19.6183 3.06344
O 50.7132 21.8144 1.69775
O 51.7159 19.6182 0.332319
O 47.6877 18.1586 3.09058
O 46.9483 20.204 1.61163
O 47.7272 18.0537 0.359574
O 45.9606 26.8059 -1.03155
Si 47.5048 27.3767 -1.0327
Si 44.6654 25.7979 -1.03415
O 47.6868 23.5783 -1.03196
Si 49.0184 24.5464 -1.03291
Si 46.1294 23.0604 -1.03414
O 49.8179 24.0566 0.332721
O 48.6282 26.1576 -1.0328
O 49.8183 24.0567 3.06377
O 45.9323 22.2522 0.3594
O 45.0175 24.226 -1.11831
O 45.9799 22.1521 3.09048
O 43.4585 30.7169 1.70216
Si 44.9471 31.4198 1.69947
Si 42.2558 29.6 1.69848
O 45.4595 27.6519 1.701
Si 46.7019 28.7321 1.69845
Si 43.9531 27.0006 1.69697
O 47.5414 28.3137 3.0639
O 46.1726 30.3032 1.69878
O 47.5411 28.3137 0.332864
O 43.8273 26.1774 3.09008
O 42.7437 28.0649 1.61364
O 43.8833 26.0833 0.359086
O 40.6253 34.3959 -1.02886
Si 42.0471 35.2259 -1.03109
Si 39.5245 33.1786 -1.03218
O 42.8853 31.5164 -1.02933
Si 44.029 32.7006 -1.03154
Si 41.4413 30.7364 -1.03257
O 44.9015 32.3567 0.334066
O 43.3649 34.2198 -1.03156
O 44.9017 32.3565 3.06517
O 41.3876 29.9059 0.360898
O 40.1441 31.6916 -1.11691
O 41.452 29.8159 3.09193
O 37.4823 37.8149 1.70217
Si 38.8264 38.7655 1.70016
Si 36.492 36.5061 1.69893
O 39.9848 35.1429 1.70247
Si 41.0209 36.4223 1.7
Si 38.6142 34.24 1.69887
O 41.9201 36.1554 3.06563
O 40.2269 37.878 1.69987
O 41.9202 36.1552 0.334562
O 38.633 33.4079 3.09235
O 37.2389 35.0788 1.61404
O 38.7052 33.3238 0.361403
O 34.0521 40.9457 -1.0283
Si 35.308 42.01 -1.0306
Si 33.1798 39.5554 -1.03165
O 36.7789 38.503 -1.0286
Si 37.6994 39.8679 -1.03087
Si 35.4923 37.4839 -1.03212
O 38.6186 39.6805 0.334721
O 36.7809 41.2484 -1.03096
O 38.6187 39.6803 3.06578
O 35.5836 36.6568 0.36151
O 34.0489 38.1991 -1.11739
O 35.6632 36.5791 3.09258
O 30.3616 43.7651 1.70268
Si 31.5198 44.9351 1.70032
Si 29.6141 42.3039 1.69927
O 33.2911 41.5696 1.70302
Si 34.0889 43.0097 1.70047
Si 32.0985 40.442 1.69941
O 35.0209 42.9033 3.0661
O 33.0535 44.3048 1.70015
O 35.0211 42.9031 0.335069
O 32.2613 39.6266 3.09336
O 30.5983 41.0286 1.6132
O 32.3483 39.5553 0.362285
O 26.4391 46.2517 -1.02854
Si 27.4906 47.5184 -1.03101
Si 25.8222 44.7307 -1.03221
O 29.5492 44.3204 -1.02837
Si 30.218 45.8247 -1.03074
Si 28.4596 43.0929 -1.03178
O 31.1558 45.8 0.334894
O 29.0735 47.0245 -1.03104
O 31.156 45.7999 3.06591
O 28.6928 42.2949 0.362256
O 26.9139 43.5463 -1.11824
O 28.786 42.2312 3.09333
O 22.3139 48.3853 1.70231
Si 23.2507 49.7391 1.70019
Si 21.8325 46.8163 1.69906
O 25.5812 46.7337 1.70183
Si 26.116 48.2906 1.70002
Si 24.6032 45.4156 1.69881
O 27.0525 48.348 3.06557
O 24.8708 49.3856 1.70001
O 27.0525 48.3481 0.33453
O 24.9053 44.6411 3.09278
O 23.0237 45.7319 1.61285
O 25.0034 44.5858 0.361722
O 18.0182 50.1501 -1.02814
Si 18.8329 51.5807 -1.03055
Si 17.6758 48.545 -1.03155
O 21.4172 48.7904 -1.0284
Si 21.8138 50.3882 -1.03084
Si 20.5583 47.3918 -1.03197
O 22.7417 50.5273 0.334728
O 20.4776 51.3702 -1.0309
O 22.7417 50.5272 3.06577
O 20.927 46.6466 0.361986
O 18.9572 47.5689 -1.11784
O 21.0296 46.6003 3.09305
O 13.5845 51.5325 1.70211
Si 14.2708 53.0288 1.70032
Si 13.3838 49.9035 1.69893
O 17.0895 50.4754 1.70297
Si 17.3447 52.1017 1.70051
Si 16.3562 49.007 1.6995
O 18.2568 52.3214 3.06615
O 15.9277 52.9631 1.70025
O 18.257 52.3213 0.33508
O 16.7886 48.2969 3.09345
O 14.7457 49.0432 1.6136
O 16.8948 48.2597 0.362437
O 9.04663 52.5208 -1.0272
Si 9.59938 54.0715 -1.03021
Si 8.9894 50.8805 -1.0312
O 12.6308 51.775 -1.02842
Si 12.7427 53.4175 -1.0307
Si 12.0289 50.2481 -1.03208
O 13.6322 53.7162 0.334847
O 11.2557 54.1513 -1.03071
O 13.6321 53.7162 3.06589
O 12.5223 49.5784 0.361597
O 10.4215 50.143 -1.11728
O 12.6304 49.551 3.09263
O 4.43972 53.1078 1.70264
Si 4.8546 54.7009 1.70039
Si 4.5263 51.4688 1.69907
O 8.07543 52.6787 1.70277
Si 8.04307 54.3247 1.70081
Si 7.60948 51.105 1.69981
O 8.90272 54.7002 3.06649
O 6.49752 54.9254 1.70042
O 8.90314 54.7003 0.335463
O 8.1592 50.4814 3.0938
O 6.01745 50.8595 1.61368
O 8.27027 50.4631 0.36272
O -0.200803 53.2894 -1.02779
Si 0.0731024 54.9127 -1.03027
Si 0.0288519 51.6643 -1.03118
O 3.45849 53.1801 -1.02884
Si 3.28221 54.8169 -1.03068
Si 3.13201 51.5716 -1.032
O 4.1059 55.2662 0.334846
O 1.69006 55.2801 -1.03059
O 4.10577 55.2663 3.06591
O 3.73455 50.9984 0.361807
O 1.56756 51.1878 -1.11757
O 3.84606 50.9901 3.0928
O -4.83942 53.0647 1.7022
Si -4.70854 54.7058 1.70067
Si -4.46842 51.466 1.69937
O -1.18451 53.2757 1.70325
Si -1.50336 54.8908 1.70079
Si -1.36905 51.6448 1.69987
O -0.722279 55.4105 3.06639
O -3.1299 55.2131 1.70062
O -0.722126 55.4105 0.335346
O -0.719299 51.1265 3.09397
O -2.89391 51.1258 1.61345
O -0.60625 51.128 0.3629
O -9.44045 52.4347 -1.02858
Si -9.45361 54.0809 -1.02981
Si -8.93103 50.8745 -1.03088
O -5.81812 52.965 -1.0278
Si -6.27698 54.546 -1.03033
Si -5.85924 51.3243 -1.03163
O -5.54426 55.1321 0.335161
O -7.92549 54.7246 -1.0302
O -5.54435 55.132 3.06623
O -5.1662 50.8647 0.362226
O -7.33283 50.6736 -1.11723
O -5.05456 50.8762 3.09326
O -13.9687 51.4045 1.70372
Si -14.1258 53.0433 1.70135
Si -13.325 49.8948 1.70021
O -10.4068 52.2495 1.70485
Si -11.002 53.7844 1.70134
Si -10.3042 50.6114 1.70028
O -10.3236 54.4325 3.06692
O -12.6598 53.8181 1.70102
O -10.3233 54.4322 0.335915
O -9.57369 50.2142 3.0942
O -11.7153 49.8343 1.61446
O -9.46317 50.2358 0.363142
O -18.3901 49.9837 -1.02823
Si -18.6897 51.6024 -1.03001
Si -17.6171 48.5358 -1.03119
O -14.9154 51.1358 -1.02735
Si -15.6424 52.6128 -1.0297
Si -14.6702 49.5129 -1.03084
O -15.0231 53.3174 0.335937
O -17.2968 52.502 -1.03007
O -15.0228 53.3175 3.06703
O -13.9074 49.1813 0.362938
O -16.0082 48.6158 -1.11609
O -13.7998 49.2118 3.09398
O 13.9344 -51.4019 1.70151
Si 14.0924 -53.0405 1.69912
Si 13.2899 -49.8924 1.69814
O 10.3728 -52.2482 1.70269
Si 10.9689 -53.7828 1.69935
Si 10.2693 -50.6102 1.69827
O 10.2906 -54.4312 3.06488
O 12.6267 -53.8159 1.69899
O 10.2906 -54.4308 0.333844
O 9.53736 -50.2135 3.09163
O 11.6801 -49.8324 1.61385
O 9.42901 -50.2347 0.360598
O 18.3551 -49.9785 -1.02937
Si 18.6555 -51.5971 -1.03238
Si 17.5815 -48.531 -1.03362
O 14.8812 -51.1326 -1.0296
Si 15.6088 -52.6093 -1.03196
Si 14.6351 -49.5099 -1.0329
O 14.9899 -53.3142 0.333674
O 17.2632 -52.4976 -1.03241
O 14.9897 -53.3143 3.06473
O 13.8713 -49.1788 0.360477
O 15.9725 -48.6117 -1.11709
O 13.7652 -49.2089 3.09151
O 22.635 -48.1753 1.70125
Si 23.0753 -49.7616 1.69837
Si 21.7382 -46.8007 1.69718
O 19.2749 -49.6276 1.69983
Si 20.1285 -51.0353 1.69858
Si 18.8882 -48.0325 1.69735
O 19.5732 -51.7914 3.06422
O 21.7668 -50.7799 1.69832
O 19.5732 -51.7917 0.333174
O 18.0979 -47.7696 3.0905
O 20.1423 -47.0212 1.61402
O 17.9959 -47.8082 0.359414
O 26.7415 -46.0061 -1.03223
Si 27.3183 -47.5481 -1.03322
Si 25.7285 -44.7148 -1.03441
O 23.5207 -47.7457 -1.03133
Si 24.4937 -49.0736 -1.03277
Si 22.9966 -46.1903 -1.03394
O 24.0065 -49.8752 0.332871
O 26.1035 -48.6765 -1.03306
O 24.0065 -49.8755 3.06392
O 22.1863 -45.9973 0.359145
O 24.1578 -45.0736 -1.11719
O 22.0882 -46.0446 3.09017
O -30.6808 43.4958 1.70215
Si -31.3893 44.9818 1.69994
Si -29.5594 42.2974 1.69882
O -27.623 45.5083 1.70267
Si -28.7076 46.7468 1.70021
Si -26.9658 44.0044 1.69899
O -28.2918 47.5878 3.06579
O -30.2769 46.2114 1.69994
O -28.2918 47.5878 0.334718
O -26.142 43.8821 3.09225
O -28.0259 42.7913 1.61494
O -26.0478 43.9385 0.361214
O -34.3496 40.6478 -1.02706
Si -35.1848 42.0664 -1.03095
Si -33.128 39.5516 -1.03196
O -31.4788 42.9192 -1.02899
Si -32.6672 44.0585 -1.03113
Si -30.6932 41.4782 -1.03223
O -32.3262 44.9325 0.334428
O -34.1839 43.3883 -1.03126
O -32.3262 44.9325 3.06549
O -29.8619 41.4282 0.361056
O -31.6435 40.1773 -1.11615
O -29.7729 41.4925 3.0921
O -37.7563 37.491 1.70222
Si -38.7118 38.8316 1.70012
Si -36.444 36.5053 1.69903
O -35.0942 40.0038 1.70062
Si -36.3773 41.0353 1.69998
Si -34.1861 38.6366 1.69896
O -36.1137 41.9354 3.06563
O -37.8298 40.2356 1.69996
O -36.114 41.9359 0.334576
O -33.3539 38.6595 3.09235
O -35.0194 37.2578 1.6154
O -33.2704 38.7309 0.361219
O -40.876 34.0506 -1.0288
Si -41.9445 35.303 -1.03093
Si -39.483 33.1827 -1.03207
O -38.4422 36.7847 -1.02854
Si -39.8101 37.7008 -1.03092
Si -37.4185 35.5018 -1.03199
O -39.6259 38.6206 0.334662
O -41.1877 36.7782 -1.03109
O -39.6258 38.6207 3.06571
O -36.5908 35.597 0.361061
O -38.129 34.0558 -1.11486
O -36.5149 35.6752 3.0921
O 37.7202 -37.4846 1.69919
Si 38.6754 -38.8254 1.69717
Si 36.4082 -36.4985 1.69618
O 35.0574 -39.9962 1.69846
Si 36.3402 -41.028 1.69696
Si 34.1494 -38.6289 1.6957
O 36.0765 -41.9282 3.06253
O 37.793 -40.229 1.69695
O 36.0767 -41.9283 0.331466
O 33.316 -38.6522 3.08836
O 34.9832 -37.2503 1.61386
O 33.2347 -38.7222 0.357297
O 40.8408 -34.0451 -1.03137
Si 41.9088 -35.2979 -1.03418
Si 39.4481 -33.1766 -1.03553
O 38.4064 -36.7785 -1.03131
Si 39.7739 -37.6951 -1.03387
Si 37.3831 -35.4953 -1.03485
O 39.5896 -38.6147 0.331766
O 41.1517 -36.7729 -1.03426
O 39.5894 -38.6149 3.0628
O 36.5548 -35.5907 0.357859
O 38.0938 -34.0493 -1.11699
O 36.4799 -35.6679 3.0889
O 43.6511 -30.3481 1.69898
Si 44.8238 -31.5036 1.69678
Si 42.1883 -29.6038 1.69556
O 41.463 -33.2822 1.69797
Si 42.9049 -34.0767 1.69679
Si 40.3321 -32.0927 1.69544
O 42.8011 -35.0088 3.06243
O 44.1976 -33.0387 1.69667
O 42.8012 -35.009 0.331342
O 39.5151 -32.26 3.08794
O 40.9147 -30.5906 1.61386
O 39.4476 -32.3424 0.35687
O 46.1295 -26.4217 -1.03213
Si 47.3979 -27.4711 -1.03453
Si 44.6076 -25.8071 -1.03578
O 44.2045 -29.5345 -1.03223
Si 45.7099 -30.2009 -1.03429
Si 42.9747 -28.4476 -1.03552
O 45.6877 -31.1383 0.331362
O 46.9076 -29.0547 -1.03461
O 45.6876 -31.1385 3.06235
O 42.1755 -28.6846 0.357178
O 43.4246 -26.9007 -1.11822
O 42.1151 -28.7734 3.0882
O -48.2874 22.2939 1.70287
Si -49.643 23.2281 1.70067
Si -46.7177 21.8146 1.69972
O -46.6415 25.5632 1.70395
Si -48.1994 26.0954 1.70033
Si -45.3214 24.588 1.699
O -48.2591 27.0317 3.06582
O -49.2924 24.8487 1.70024
O -48.2586 27.0315 0.334792
O -44.5451 24.8948 3.09117
O -45.6346 23.0075 1.61811
O -44.494 24.9874 0.360184
O -50.0473 17.9958 -1.02868
Si -51.4788 18.8088 -1.03059
Si -48.4418 17.6547 -1.03186
O -48.6917 21.3959 -1.02791
Si -50.2899 21.7907 -1.03036
Si -47.2919 20.5389 -1.03133
O -50.4305 22.718 0.335313
O -51.2704 20.4537 -1.03066
O -50.4303 22.7183 3.06631
O -46.5457 20.9116 0.361191
O -47.4666 18.9372 -1.11315
O -46.5019 21.0091 3.0923
O -51.4269 13.561 1.70392
Si -52.9236 14.2465 1.70087
Si -49.7978 13.3607 1.70001
O -50.3719 17.0661 1.70253
Si -51.9984 17.3205 1.70047
Si -48.9029 16.3339 1.69919
O -52.2189 18.2324 3.06602
O -52.8589 15.9033 1.70046
O -52.2189 18.2323 0.334983
O -48.1919 16.7701 3.09167
O -48.9378 14.7231 1.61752
O -48.1568 16.8708 0.360614
O -52.4155 9.02297 -1.02758
Si -53.9662 9.57586 -1.03032
Si -50.7753 8.96508 -1.03141
O -51.6694 12.6066 -1.02856
Si -53.3118 12.7187 -1.03022
Si -50.1424 12.0049 -1.03112
O -53.6107 13.6077 0.335448
O -54.0459 11.232 -1.03048
O -53.6109 13.608 3.06648
O -49.4724 12.5005 0.361759
O -50.0371 10.3972 -1.1138
O -49.4455 12.6052 3.09282
O 50.0209 -18.0013 -1.0322
O 51.4059 -13.5703 1.69941
Si 52.902 -14.2571 1.69662
Si 49.777 -13.3692 1.69564
O 50.3463 -17.0742 1.69772
Si 51.9727 -17.3294 1.69607
Si 48.8782 -16.3403 1.6948
O 52.1924 -18.2409 3.06164
O 52.8352 -15.9136 1.69626
O 52.1926 -18.2409 0.33053
O 48.168 -16.7716 3.08901
O 48.9158 -14.7302 1.60708
O 48.1303 -16.8788 0.35808
O 52.3974 -9.03436 -1.0321
Si 53.9477 -9.58804 -1.03364
Si 50.7571 -8.97648 -1.03444
O 51.6491 -12.6186 -1.03258
Si 53.2916 -12.7305 -1.03442
Si 50.1228 -12.0153 -1.03548
O 53.5899 -13.6196 0.331157
O 54.0264 -11.2442 -1.03416
O 53.59 -13.6196 3.06214
O 49.4534 -12.5054 0.359417
O 50.0193 -10.408 -1.12484
O 49.4244 -12.6183 3.09064
O 52.9853 -4.42823 1.70105
Si 54.5782 -4.8442 1.69793
Si 51.3463 -4.51391 1.69686
O 52.5553 -8.06419 1.70128
Si 54.2012 -8.03241 1.69753
Si 50.9819 -7.59694 1.69672
O 54.5769 -8.8921 3.06305
O 54.8023 -6.48709 1.6973
O 54.5765 -8.89232 0.332126
O 50.3586 -8.14361 3.09204
O 50.7373 -6.00499 1.60689
O 50.3399 -8.2602 0.360936
Si 54.7943 -0.0629599 -1.03348
Si 51.5459 -0.0161859 -1.03453
O 53.0582 -3.44721 -1.03065
Si 54.6952 -3.27202 -1.03313
Si 51.45 -3.11946 -1.03418
O 55.144 -4.09566 0.332554
O 55.1599 -1.68032 -1.03364
O 55.144 -4.09621 3.06369
O 50.8768 -3.71929 0.360908
O 51.0683 -1.55452 -1.12315
O 50.868 -3.83597 3.09196
O -22.6706 48.1818 7.16571
Si -23.1103 49.7682 7.16282
Si -21.7743 46.8069 7.16159
O -19.3099 49.6333 7.16581
Si -20.163 51.0413 7.16315
Si -18.924 48.038 7.162
O -19.6076 51.7973 8.52876
O -21.8014 50.7862 7.16274
O -19.6074 51.7972 5.79771
O -18.1346 47.7743 8.55552
O -20.1784 47.0273 7.07726
O -18.031 47.8139 5.82449
O -26.7778 46.0133 4.43311
Si -27.3542 47.5554 4.43126
Si -25.765 44.7218 4.43002
O -23.5564 47.7522 4.43318
Si -24.529 49.0805 4.43169
Si -23.0328 46.1967 4.43047
O -24.0416 49.882 5.7973
O -26.139 48.6835 4.43137
O -24.0415 49.8823 8.52841
O -22.2232 46.0033 5.82393
O -24.1944 45.0803 4.34621
O -22.1239 46.0512 8.5549
O -43.6847 30.3519 7.16458
Si -44.858 31.5066 7.16234
Si -42.2215 29.6083 7.16117
O -41.498 33.2874 7.16437
Si -42.9403 34.0811 7.16223
Si -40.3667 32.0983 7.16111
O -42.8368 35.0134 8.52781
O -44.2325 33.0421 7.16213
O -42.8368 35.0134 5.79675
O -39.55 32.2655 8.55385
O -40.9485 30.5959 7.07917
O -39.4819 32.3491 5.82282
O -46.1609 26.4228 4.43163
Si -47.4302 27.4712 4.43125
Si -44.6387 25.8091 4.42991
O -44.2379 29.5372 4.43325
Si -45.7437 30.2027 4.43129
Si -43.0074 28.451 4.43013
O -45.7217 31.1404 5.79687
O -46.9406 29.0553 4.43123
O -45.7217 31.1405 8.52793
O -42.2081 28.6891 5.82264
O -43.4563 26.9036 4.34893
O -42.1481 28.7774 8.55365
O -53.0063 4.41633 7.16466
Si -54.5991 4.83241 7.16261
Si -51.3671 4.50112 7.1613
O -52.5741 8.05113 7.16443
Si -54.2201 8.02017 7.16279
Si -51.0006 7.5844 7.1617
O -54.5952 8.87989 8.52841
O -54.8223 6.47536 7.1626
O -54.5953 8.88004 5.79736
O -50.3762 8.13654 8.55453
O -50.756 5.99191 7.07932
O -50.3586 8.24295 5.82344
O -53.1947 -0.224215 4.43398
Si -54.8177 0.0518996 4.43182
Si -51.5692 0.00266185 4.43086
O -53.0799 3.43442 4.43342
Si -54.717 3.26054 4.43155
Si -51.4718 3.1061 4.43024
O -55.1653 4.08455 5.79709
O -55.1827 1.66926 4.43151
O -55.1654 4.08452 8.52817
O -50.8975 3.71069 5.82288
O -51.0899 1.54086 4.34821
O -50.8894 3.81764 8.55393
O -52.9793 -4.86349 7.16506
Si -54.6202 -4.72947 7.16244
Si -51.3797 -4.4963 7.16118
O -53.1828 -1.20878 7.16549
Si -54.7985 -1.52423 7.16288
Si -51.5522 -1.39613 7.16193
O -55.3169 -0.742536 8.52855
O -55.1243 -3.14994 7.16243
O -55.3168 -0.742193 5.79748
O -51.0326 -0.744428 8.55481
O -51.0358 -2.92222 7.07916
O -51.034 -0.636192 5.82375
O -52.3618 -9.46664 4.43379
Si -54.008 -9.47568 4.43133
Si -50.8001 -8.96172 4.43025
O -52.8819 -5.84333 4.43275
Si -54.4642 -6.29801 4.43134
Si -51.2413 -5.88829 4.43008
O -55.0483 -5.56406 5.79692
O -54.6475 -7.94589 4.43123
O -55.0485 -5.56407 8.52798
O -50.7804 -5.19357 5.82277
O -50.5942 -7.36381 4.34791
O -50.7908 -5.08671 8.5538
O -51.346 -13.9985 7.16453
Si -52.9852 -14.1507 7.16239
Si -49.8341 -13.3597 7.16124
O -52.1796 -10.4342 7.16421
Si -53.7163 -11.0248 7.16236
Si -50.5412 -10.3364 7.16126
O -54.3621 -10.3444 8.52794
O -53.7554 -12.6824 7.16225
O -54.3622 -10.3444 5.79689
O -50.1424 -9.60444 8.55407
O -49.7682 -11.75 7.07872
O -50.1623 -9.4984 5.82303
O -49.94 -18.425 4.43339
Si -51.5598 -18.719 4.43142
Si -48.4894 -17.6571 4.43026
O -51.0802 -14.9466 4.4335
Si -52.5598 -15.6685 4.43134
Si -49.4566 -14.7066 4.43018
O -53.2623 -15.0469 5.79692
O -52.4546 -17.3232 4.43121
O -53.2623 -15.0469 8.52797
O -49.1229 -13.9429 5.82304
O -48.5636 -16.0477 4.3474
O -49.152 -13.8388 8.55408
O -48.1548 -22.7125 7.16561
Si -49.7428 -23.1464 7.16246
Si -46.7765 -21.8212 7.16131
O -49.593 -19.3463 7.16493
Si -51.0041 -20.1942 7.16249
Si -47.9964 -18.966 7.16131
O -51.758 -19.6361 8.52811
O -50.7556 -21.8336 7.16223
O -51.758 -19.6359 5.79704
O -47.7301 -18.1765 8.55429
O -46.9904 -20.2245 7.07795
O -47.7685 -18.0748 5.82328
O -46.0024 -26.8279 4.43452
Si -47.5466 -27.3984 4.43138
Si -44.7071 -25.8199 4.43017
O -47.7289 -23.6 4.43248
Si -49.0608 -24.5676 4.43133
Si -46.1715 -23.0822 4.43015
O -49.8603 -24.0771 5.79698
O -48.6702 -26.179 4.43122
O -49.8606 -24.0772 8.528
O -45.975 -22.2729 5.82336
O -45.0596 -24.248 4.3463
O -46.022 -22.1742 8.55441
O -43.4993 -30.7398 7.1642
Si -44.9879 -31.4427 7.1626
Si -42.2967 -29.6228 7.16153
O -45.5006 -27.6746 7.16341
Si -46.7431 -28.7546 7.16236
Si -43.9941 -27.0232 7.16112
O -47.5824 -28.3357 8.52793
O -46.2135 -30.3258 7.1624
O -47.5827 -28.3359 5.79692
O -43.8689 -26.2002 8.55452
O -42.7849 -28.0876 7.07686
O -43.9247 -26.1054 5.8234
O -40.6661 -34.4196 4.43321
Si -42.0878 -35.2496 4.43141
Si -39.5655 -33.2021 4.43034
O -42.926 -31.5398 4.43474
Si -44.0696 -32.724 4.43161
Si -41.482 -30.7595 4.43053
O -44.9423 -32.3798 5.79721
O -43.4056 -34.2433 4.43129
O -44.9422 -32.3795 8.52824
O -41.4282 -29.929 5.8241
O -40.1851 -31.7151 4.34527
O -41.4932 -29.8388 8.55519
O -37.5222 -37.838 7.16504
Si -38.8662 -38.7888 7.16237
Si -36.5322 -36.529 7.16111
O -40.0254 -35.1666 7.16522
Si -41.0614 -36.4461 7.16249
Si -38.655 -34.2635 7.16142
O -41.9607 -36.1793 8.52809
O -40.267 -37.9016 7.16225
O -41.9607 -36.1791 5.79699
O -38.6736 -33.4317 8.55509
O -37.2796 -35.102 7.07594
O -38.7464 -33.3471 5.82412
O -34.0913 -40.968 4.43406
Si -35.347 -42.0326 4.4317
Si -33.2193 -39.5775 4.43062
O -36.8185 -38.5259 4.43277
Si -37.7388 -39.8909 4.43128
Si -35.5322 -37.5065 4.43
O -38.6581 -39.7036 5.79683
O -36.82 -41.2713 4.43135
O -38.6582 -39.7037 8.52792
O -35.6238 -36.6796 5.8237
O -34.0886 -38.2213 4.34486
O -35.7033 -36.6016 8.55474
O -30.4006 -43.7873 7.16525
Si -31.5585 -44.9576 7.16271
Si -29.6535 -42.3259 7.16159
O -33.3303 -41.592 7.16529
Si -34.1277 -43.0323 7.16277
Si -32.138 -40.4641 7.16167
O -35.0597 -42.926 8.52842
O -33.0922 -44.3274 7.16249
O -35.0599 -42.9258 5.79734
O -32.3008 -39.6486 8.55556
O -30.6377 -41.0506 7.07572
O -32.3877 -39.5774 5.82453
O -26.4772 -46.2726 4.43399
Si -27.5283 -47.5397 4.43149
Si -25.8609 -44.7514 4.43014
O -29.5882 -44.3425 4.43367
Si -30.2565 -45.847 4.43164
Si -28.499 -43.1147 4.43051
O -31.1943 -45.8224 5.79727
O -29.1115 -47.0463 4.43143
O -31.1945 -45.8224 8.52828
O -28.7324 -42.3166 5.82445
O -26.9531 -43.5674 4.3443
O -28.8253 -42.2531 8.55555
O -22.3511 -48.4043 7.16557
Si -23.2872 -49.7585 7.16307
Si -21.8704 -46.835 7.1622
O -25.6192 -46.7542 7.16414
Si -26.1533 -48.3114 7.16252
Si -24.6417 -45.4357 7.16115
O -27.0898 -48.3691 8.52807