2592
 Atoms. Timestep: 28433
O 17.0586 4.99135 8.15784
Si 18.6775 4.80266 8.30465
Si 15.7558 4.26649 7.52723
O 17.6035 1.36617 9.162
Si 19.1088 1.60166 8.54509
Si 16.0315 1.69364 8.96843
O 19.4562 0.823938 10.0041
O 19.3145 3.25528 8.34643
O 19.3206 0.698838 7.15858
O 15.351 2.15244 10.4973
O 16.0829 2.52203 7.28115
O 15.4791 0.680075 7.76112
O 13.95 7.42016 5.06825
Si 15.37 8.26388 5.18376
Si 12.8505 6.19433 4.99342
O 16.2345 4.77417 5.81615
Si 17.5116 5.8332 5.46883
Si 14.8511 3.90519 4.82439
O 18.5081 5.6129 6.81635
O 16.7462 7.3158 5.29341
O 18.5095 5.51988 4.17701
O 14.5878 3.83638 6.44986
O 13.525 4.78791 4.57821
O 15.5174 3.42674 53.9401
O 10.6677 10.6532 8.08934
Si 11.9916 11.6298 8.09252
Si 9.81346 9.25575 8.06814
O 13.3986 8.01485 7.88963
Si 14.3267 9.37121 7.99152
Si 12.0319 7.11175 7.81513
O 15.2386 9.12766 9.37428
O 13.4267 10.7762 8.07107
O 15.1771 9.1918 6.56176
O 11.9431 6.43543 9.28942
O 10.6691 7.95071 7.66752
O 12.1596 6.19028 6.4718
O 7.03775 13.3591 5.39817
Si 8.21315 14.5108 5.38431
Si 6.37055 11.8631 5.39247
O 10.0897 11.1281 5.28001
Si 10.8348 12.5963 5.28871
Si 8.86664 10.0356 5.26125
O 11.7442 12.4957 6.68607
O 9.75329 13.8675 5.33907
O 11.7323 12.5025 54.4698
O 8.88257 9.35417 6.73698
O 7.39412 10.6571 5.09113
O 9.13164 9.14192 54.5142
O 3.0832 15.5766 8.21476
Si 4.09214 16.8765 8.25586
Si 2.59497 14.0124 8.18126
O 6.37249 13.7692 8.21156
Si 6.93551 15.3163 8.20233
Si 5.31511 12.5157 8.20653
O 7.84349 15.3398 9.60393
O 5.70283 16.4402 8.24005
O 7.84515 15.3357 6.7957
O 5.46953 11.8054 9.66094
O 3.75316 12.895 8.13505
O 5.659 11.6834 6.84673
O -0.743622 17.2471 5.56082
Si -0.238622 18.8038 5.70622
Si -1.24066 15.7825 6.13895
O 2.29249 15.9565 5.36191
Si 2.72507 17.553 5.45473
Si 1.45398 14.5365 5.36893
O 3.64985 17.6453 6.8412
O 1.41774 18.5921 5.56592
O 3.61172 17.6686 4.0332
O 1.85403 13.7794 6.75168
O -0.132885 14.7274 5.57254
O 1.75815 13.8093 54.5363
O -5.09878 17.1456 8.15358
Si -4.91078 18.7647 8.30036
Si -4.37218 15.8428 7.52504
O -1.47472 17.7 9.15983
Si -1.70949 19.204 8.53971
Si -1.79979 16.1277 8.96622
O -0.93013 19.5507 9.99857
O -3.36425 19.4051 8.34112
O -0.805793 19.4149 7.15324
O -2.25647 15.4457 10.4949
O -2.62848 16.1753 7.27858
O -0.78453 15.578 7.75913
O -7.51373 14.0237 5.06575
Si -8.36181 15.4414 5.18012
Si -6.28434 12.9283 4.99037
O -4.87902 16.3203 5.8134
Si -5.94025 17.5948 5.46464
Si -4.0063 14.9399 4.82234
O -5.7217 18.5921 6.81226
O -7.41962 16.8223 5.2888
O -5.62796 18.5936 4.1729
O -3.93759 14.676 6.44789
O -4.88154 13.6094 4.57516
O -3.53155 15.6083 53.9379
O -10.7288 10.7239 8.08612
Si -11.7105 12.0441 8.08847
Si -9.32794 9.87533 8.06424
O -8.10438 13.4689 7.88581
Si -9.46429 14.3916 7.9878
Si -7.19631 12.1054 7.81196
O -9.22507 15.3049 9.37058
O -10.8644 13.4838 8.067
O -9.28861 15.2438 6.55846
O -6.52084 12.0195 9.28666
O -8.02801 10.7384 7.6634
O -6.27585 12.2374 6.46855
O -13.4146 7.07956 5.39325
Si -14.5709 8.25053 5.37978
Si -11.9163 6.41726 5.3868
O -11.1996 10.142 5.27534
Si -12.6704 10.8819 5.28459
Si -10.102 8.92346 5.2573
O -12.5746 11.7919 6.68177
O -13.9359 9.79396 5.33498
O -12.5815 11.7802 54.4659
O -9.42112 8.94366 6.73327
O -10.7149 7.44707 5.08804
O -9.21011 9.19332 54.5099
O -15.6166 3.11557 8.21377
Si -16.9192 4.12118 8.25357
Si -14.0513 2.63091 8.18091
O -13.8214 6.41111 8.20577
Si -15.3701 6.96974 8.19781
Si -12.5647 5.35746 8.20087
O -15.3976 7.87783 9.59903
O -16.4893 5.73325 8.2368
O -15.3941 7.87888 6.79108
O -11.8544 5.51677 9.65492
O -12.9384 3.79375 8.1312
O -11.7344 5.7043 6.84034
O -17.2778 -0.715756 5.55738
Si -18.835 -0.211914 5.70367
Si -15.8123 -1.21428 6.13305
O -15.9938 2.32299 5.36213
Si -17.5909 2.75332 5.45246
Si -14.5727 1.48629 5.36873
O -17.6866 3.6772 6.83899
O -18.6273 1.4444 5.56328
O -17.7095 3.63935 4.03117
O -13.8176 1.88683 6.75277
O -14.7608 -0.101909 5.56775
O -13.8453 1.79588 54.537
O -17.1845 -5.07094 8.14984
Si -18.8033 -4.8819 8.29697
Si -15.8815 -4.34609 7.51961
O -17.7297 -1.44564 9.1543
Si -19.2349 -1.68083 8.53716
Si -16.1577 -1.77313 8.96065
O -19.5821 -0.902949 9.9962
O -19.4404 -3.33452 8.33861
O -19.4463 -0.77791 7.15066
O -15.4771 -2.23177 10.4895
O -16.2086 -2.60156 7.2733
O -15.6053 -0.759479 7.75344
O -14.0753 -7.49888 5.06151
Si -15.4951 -8.34298 5.17696
Si -12.9761 -6.27283 4.98671
O -16.3602 -4.85358 5.80852
Si -17.6373 -5.91265 5.46121
Si -14.9772 -3.98437 4.81675
O -18.6338 -5.69221 6.80865
O -16.8716 -7.39521 5.28629
O -18.6351 -5.59925 4.1693
O -14.7137 -3.91548 6.44216
O -13.6507 -4.86666 4.57114
O -15.6435 -3.50621 53.9324
O -10.7916 -10.7309 8.08371
Si -12.1153 -11.7079 8.0865
Si -9.93795 -9.33313 8.06251
O -13.5237 -8.09326 7.88255
Si -14.4511 -9.44998 7.98475
Si -12.1571 -7.18984 7.80841
O -15.3633 -9.20668 9.36745
O -13.5506 -10.8546 8.06476
O -15.3017 -9.2709 6.55496
O -12.0687 -6.51335 9.28262
O -10.7939 -8.02831 7.66182
O -12.2848 -6.26861 6.46496
O -7.16121 -13.4356 5.39272
Si -8.33625 -14.5877 5.3793
Si -6.49391 -11.9396 5.38702
O -10.2131 -11.2057 5.27373
Si -10.9582 -12.6739 5.28274
Si -8.99057 -10.1126 5.25561
O -11.8676 -12.5736 6.68001
O -9.87653 -13.9449 5.33372
O -11.8556 -12.5805 54.4637
O -9.00734 -9.43074 6.73112
O -7.51735 -10.733 5.08729
O -9.25557 -9.21922 54.5083
O -3.20688 -15.6533 8.21313
Si -4.21574 -16.9534 8.25284
Si -2.71802 -14.0894 8.17724
O -6.49524 -13.846 8.20603
Si -7.05871 -15.393 8.19743
Si -5.43806 -12.5924 8.20108
O -7.96675 -15.4165 9.59888
O -5.82636 -16.5171 8.23618
O -7.96817 -15.4125 6.79067
O -5.59383 -11.8811 9.65489
O -3.87586 -12.9715 8.13283
O -5.78092 -11.7605 6.84071
O 0.620329 -17.3251 5.56137
Si 0.114287 -18.8814 5.70636
Si 1.1164 -15.8602 6.13987
O -2.41617 -16.0338 5.35772
Si -2.84895 -17.6301 5.4518
Si -1.57706 -14.6142 5.36483
O -3.77373 -17.722 6.83816
O -1.54187 -18.6693 5.56448
O -3.73553 -17.7458 4.03015
O -1.97838 -13.8566 6.74695
O 0.00948396 -14.8055 5.57094
O -1.87973 -13.8873 54.5317
O 4.97459 -17.2249 8.15533
Si 4.78657 -18.8439 8.30218
Si 4.24822 -15.9221 7.52637
O 1.3506 -17.7777 9.16058
Si 1.58501 -19.2816 8.54008
Si 1.67549 -16.2053 8.96717
O 0.805649 -19.6285 9.99883
O 3.23974 -19.4837 8.34229
O 0.681126 -19.4924 7.15362
O 2.13257 -15.5238 10.496
O 2.50419 -16.2533 7.27966
O 0.660303 -15.6556 7.75997
O 7.39041 -14.1039 5.0704
Si 8.23847 -15.5216 5.18447
Si 6.16118 -13.0083 4.9949
O 4.75516 -16.3998 5.81491
Si 5.81637 -17.6745 5.46661
Si 3.88276 -15.0193 4.82364
O 5.59756 -18.6717 6.81416
O 7.29607 -16.9024 5.29229
O 5.50408 -18.6731 4.17462
O 3.81365 -14.7555 6.44914
O 4.7584 -13.6887 4.57832
O 3.4076 -15.687 53.939
O 10.6058 -10.8045 8.09254
Si 11.5875 -12.1247 8.09448
Si 9.20492 -9.95598 8.07039
O 7.98118 -13.5493 7.89031
Si 9.34109 -14.472 7.99229
Si 7.07323 -12.1857 7.8165
O 9.10176 -15.3853 9.375
O 10.7413 -13.5643 8.07226
O 9.1653 -15.3242 6.56287
O 6.39801 -12.0995 9.29127
O 7.90527 -10.8189 7.66831
O 6.15264 -12.3176 6.47317
O 13.2911 -7.15993 5.40119
Si 14.4475 -8.33082 5.3873
Si 11.7927 -6.49793 5.39451
O 11.0764 -10.2229 5.28145
Si 12.5473 -10.9624 5.29071
Si 9.9788 -9.00425 5.26345
O 12.4516 -11.8725 6.68786
O 13.8126 -9.87432 5.34169
O 12.4585 -11.8608 54.472
O 9.29829 -9.02415 6.73957
O 10.5919 -7.528 5.09403
O 9.08678 -9.27432 54.5162
O 15.492 -3.19536 8.22226
Si 16.7947 -4.20083 8.26193
Si 13.9265 -2.71105 8.18964
O 13.6975 -6.49156 8.2135
Si 15.2464 -7.04984 8.20541
Si 12.4407 -5.43802 8.20858
O 15.2742 -7.95779 9.60668
O 16.3651 -5.81301 8.24449
O 15.2704 -7.95919 6.79878
O 11.7311 -5.59681 9.66303
O 12.8142 -3.87433 8.13763
O 11.6102 -5.7858 6.84838
O 17.1522 0.636704 5.56523
Si 18.7094 0.132794 5.71157
Si 15.6865 1.13496 6.14079
O 15.8687 -2.40297 5.37135
Si 17.466 -2.83278 5.46086
Si 14.4476 -1.56625 5.37749
O 17.5621 -3.7564 6.84753
O 18.502 -1.52355 5.57127
O 17.5846 -3.71904 4.03973
O 13.6929 -1.96583 6.76207
O 14.6356 0.0221113 5.57528
O 13.7198 -1.87698 54.5462
O 17.0586 4.99134 13.7792
Si 18.6775 4.80266 13.926
Si 15.7558 4.26649 13.1486
O 17.6035 1.36616 14.7834
Si 19.1088 1.60166 14.1665
Si 16.0315 1.69364 14.5898
O 19.4562 0.823937 15.6255
O 19.3145 3.25528 13.9678
O 19.3206 0.698837 12.78
O 15.351 2.15244 16.1187
O 16.0829 2.52203 12.9025
O 15.4791 0.680075 13.3825
O 13.95 7.42016 10.6896
Si 15.37 8.26388 10.8051
Si 12.8505 6.19433 10.6148
O 16.2345 4.77417 11.4375
Si 17.5116 5.8332 11.0902
Si 14.8511 3.9052 10.4458
O 18.5081 5.6129 12.4377
O 16.7462 7.3158 10.9148
O 18.5095 5.51988 9.79838
O 14.5878 3.83638 12.0712
O 13.525 4.78791 10.1996
O 15.5174 3.42674 8.96912
O 10.6677 10.6532 13.7107
Si 11.9916 11.6298 13.7139
Si 9.81346 9.25575 13.6895
O 13.3986 8.01485 13.511
Si 14.3267 9.37121 13.6129
Si 12.0319 7.11175 13.4365
O 15.2386 9.12766 14.9956
O 13.4267 10.7762 13.6924
O 15.1771 9.1918 12.1831
O 11.9431 6.43543 14.9108
O 10.6691 7.95071 13.2889
O 12.1596 6.19028 12.0932
O 7.03775 13.3591 11.0195
Si 8.21315 14.5108 11.0057
Si 6.37055 11.8631 11.0138
O 10.0897 11.1281 10.9014
Si 10.8348 12.5963 10.9101
Si 8.86664 10.0356 10.8826
O 11.7442 12.4957 12.3074
O 9.75329 13.8675 10.9604
O 11.7323 12.5025 9.4988
O 8.88257 9.35417 12.3584
O 7.39412 10.6571 10.7125
O 9.13164 9.14192 9.54317
O 3.0832 15.5766 13.8361
Si 4.09214 16.8765 13.8772
Si 2.59497 14.0124 13.8026
O 6.37249 13.7692 13.8329
Si 6.93551 15.3163 13.8237
Si 5.31511 12.5157 13.8279
O 7.84349 15.3398 15.2253
O 5.70283 16.4402 13.8614
O 7.84515 15.3357 12.4171
O 5.46953 11.8054 15.2823
O 3.75316 12.895 13.7564
O 5.659 11.6834 12.4681
O -0.743624 17.2471 11.1822
Si -0.238621 18.8038 11.3276
Si -1.24066 15.7825 11.7603
O 2.2925 15.9565 10.9833
Si 2.72507 17.553 11.0761
Si 1.45399 14.5365 10.9903
O 3.64985 17.6453 12.4626
O 1.41774 18.5921 11.1873
O 3.61172 17.6686 9.65457
O 1.85404 13.7794 12.3731
O -0.132884 14.7274 11.1939
O 1.75815 13.8093 9.56532
O -5.09878 17.1456 13.775
Si -4.91078 18.7647 13.9217
Si -4.37218 15.8428 13.1464
O -1.47472 17.7 14.7812
Si -1.70949 19.204 14.1611
Si -1.79979 16.1277 14.5876
O -0.930131 19.5507 15.6199
O -3.36424 19.4051 13.9625
O -0.805791 19.4149 12.7746
O -2.25647 15.4457 16.1162
O -2.62848 16.1753 12.9
O -0.78453 15.578 13.3805
O -7.51373 14.0237 10.6871
Si -8.36181 15.4414 10.8015
Si -6.28434 12.9283 10.6117
O -4.87902 16.3203 11.4348
Si -5.94025 17.5948 11.086
Si -4.0063 14.9399 10.4437
O -5.7217 18.5921 12.4336
O -7.41962 16.8223 10.9102
O -5.62796 18.5936 9.79427
O -3.93759 14.676 12.0693
O -4.88154 13.6094 10.1965
O -3.53155 15.6083 8.96694
O -10.7288 10.7239 13.7075
Si -11.7105 12.0441 13.7098
Si -9.32794 9.87533 13.6856
O -8.10438 13.4689 13.5072
Si -9.46429 14.3916 13.6092
Si -7.19631 12.1054 13.4333
O -9.22507 15.3049 14.992
O -10.8644 13.4838 13.6884
O -9.28861 15.2438 12.1798
O -6.52084 12.0195 14.908
O -8.028 10.7384 13.2848
O -6.27585 12.2374 12.0899
O -13.4146 7.07957 11.0146
Si -14.5709 8.25053 11.0011
Si -11.9163 6.41726 11.0082
O -11.1996 10.142 10.8967
Si -12.6704 10.8819 10.906
Si -10.102 8.92346 10.8787
O -12.5746 11.7919 12.3031
O -13.9359 9.79396 10.9564
O -12.5815 11.7802 9.49493
O -9.42112 8.94367 12.3546
O -10.7149 7.44707 10.7094
O -9.21011 9.19333 9.5389
O -15.6166 3.11557 13.8351
Si -16.9192 4.12118 13.8749
Si -14.0513 2.63091 13.8023
O -13.8214 6.41111 13.8271
Si -15.3701 6.96974 13.8192
Si -12.5647 5.35745 13.8222
O -15.3976 7.87783 15.2204
O -16.4893 5.73325 13.8582
O -15.3941 7.87888 12.4125
O -11.8544 5.51677 15.2763
O -12.9384 3.79375 13.7526
O -11.7344 5.70429 12.4617
O -17.2778 -0.715761 11.1788
Si -18.835 -0.211909 11.325
Si -15.8123 -1.21427 11.7544
O -15.9938 2.32298 10.9835
Si -17.5909 2.75332 11.0738
Si -14.5727 1.48628 10.9901
O -17.6866 3.6772 12.4604
O -18.6273 1.4444 11.1847
O -17.7095 3.63935 9.65255
O -13.8176 1.88683 12.3741
O -14.7608 -0.101912 11.1891
O -13.8453 1.79588 9.56599
O -17.1845 -5.07097 13.7712
Si -18.8033 -4.8819 13.9183
Si -15.8815 -4.34608 13.141
O -17.7297 -1.44564 14.7757
Si -19.2349 -1.68083 14.1585
Si -16.1577 -1.77313 14.582
O -19.582 -0.902943 15.6176
O -19.4404 -3.33451 13.96
O -19.4464 -0.777904 12.772
O -15.4771 -2.23178 16.1109
O -16.2086 -2.60156 12.8947
O -15.6053 -0.759482 13.3748
O -14.0753 -7.49888 10.6829
Si -15.4951 -8.34298 10.7983
Si -12.9761 -6.27285 10.6081
O -16.3602 -4.85359 11.4299
Si -17.6373 -5.91265 11.0826
Si -14.9771 -3.98437 10.4381
O -18.6338 -5.6922 12.43
O -16.8716 -7.3952 10.9077
O -18.6351 -5.59925 9.79068
O -14.7137 -3.91548 12.0635
O -13.6507 -4.86665 10.1925
O -15.6435 -3.50621 8.96144
O -10.7916 -10.7309 13.7051
Si -12.1153 -11.7079 13.7079
Si -9.93796 -9.33313 13.6839
O -13.5237 -8.09326 13.5039
Si -14.4511 -9.44998 13.6061
Si -12.1571 -7.18985 13.4298
O -15.3633 -9.20669 14.9888
O -13.5506 -10.8546 13.6861
O -15.3017 -9.2709 12.1763
O -12.0687 -6.51335 14.904
O -10.7939 -8.02831 13.2832
O -12.2848 -6.2686 12.0863
O -7.16121 -13.4356 11.0141
Si -8.33625 -14.5877 11.0007
Si -6.49391 -11.9396 11.0084
O -10.2131 -11.2057 10.8951
Si -10.9582 -12.6739 10.9041
Si -8.99057 -10.1126 10.877
O -11.8676 -12.5736 12.3014
O -9.87653 -13.9449 10.9551
O -11.8556 -12.5805 9.49273
O -9.00734 -9.43074 12.3525
O -7.51735 -10.733 10.7087
O -9.25557 -9.21922 9.53729
O -3.20688 -15.6533 13.8345
Si -4.21574 -16.9534 13.8742
Si -2.71802 -14.0894 13.7986
O -6.49523 -13.846 13.8274
Si -7.05871 -15.393 13.8188
Si -5.43805 -12.5924 13.8225
O -7.96674 -15.4165 15.2203
O -5.82636 -16.5171 13.8575
O -7.96817 -15.4125 12.412
O -5.59383 -11.8811 15.2763
O -3.87585 -12.9715 13.7542
O -5.78091 -11.7605 12.4621
O 0.62032 -17.3251 11.1827
Si 0.114288 -18.8814 11.3277
Si 1.1164 -15.8602 11.7612
O -2.41618 -16.0338 10.9791
Si -2.84895 -17.6301 11.0732
Si -1.57706 -14.6142 10.9862
O -3.77372 -17.722 12.4595
O -1.54187 -18.6693 11.1858
O -3.73553 -17.7458 9.65152
O -1.97837 -13.8566 12.3683
O 0.00948832 -14.8055 11.1923
O -1.87973 -13.8873 9.56067
O 4.9746 -17.2249 13.7767
Si 4.78657 -18.8439 13.9235
Si 4.24822 -15.9221 13.1477
O 1.3506 -17.7777 14.782
Si 1.58501 -19.2816 14.1615
Si 1.67549 -16.2053 14.5885
O 0.805645 -19.6285 15.6202
O 3.23974 -19.4837 13.9637
O 0.681127 -19.4924 12.775
O 2.13258 -15.5238 16.1173
O 2.50419 -16.2533 12.901
O 0.660305 -15.6556 13.3813
O 7.39041 -14.1039 10.6918
Si 8.23847 -15.5216 10.8058
Si 6.16118 -13.0083 10.6163
O 4.75516 -16.3998 11.4363
Si 5.81637 -17.6745 11.088
Si 3.88276 -15.0193 10.445
O 5.59756 -18.6717 12.4355
O 7.29607 -16.9024 10.9137
O 5.50408 -18.6731 9.796
O 3.81365 -14.7555 12.0705
O 4.7584 -13.6887 10.1997
O 3.4076 -15.687 8.96806
O 10.6058 -10.8045 13.7139
Si 11.5875 -12.1247 13.7159
Si 9.20492 -9.95598 13.6918
O 7.98118 -13.5493 13.5117
Si 9.34109 -14.472 13.6137
Si 7.07323 -12.1857 13.4379
O 9.10176 -15.3853 14.9964
O 10.7413 -13.5643 13.6936
O 9.1653 -15.3242 12.1842
O 6.39801 -12.0995 14.9126
O 7.90527 -10.8189 13.2897
O 6.15264 -12.3176 12.0945
O 13.2911 -7.15993 11.0226
Si 14.4475 -8.33082 11.0087
Si 11.7927 -6.49793 11.0159
O 11.0764 -10.2229 10.9028
Si 12.5473 -10.9624 10.9121
Si 9.9788 -9.00425 10.8848
O 12.4516 -11.8725 12.3092
O 13.8126 -9.87432 10.9631
O 12.4585 -11.8608 9.501
O 9.29829 -9.02415 12.3609
O 10.5919 -7.528 10.7154
O 9.08678 -9.27432 9.54518
O 15.492 -3.19536 13.8436
Si 16.7947 -4.20083 13.8833
Si 13.9265 -2.71105 13.811
O 13.6975 -6.49156 13.8349
Si 15.2464 -7.04985 13.8268
Si 12.4407 -5.43802 13.83
O 15.2742 -7.95779 15.2281
O 16.3651 -5.81301 13.8659
O 15.2704 -7.95919 12.4201
O 11.7311 -5.59681 15.2844
O 12.8142 -3.87433 13.759
O 11.6102 -5.7858 12.4698
O 17.1522 0.636705 11.1866
Si 18.7094 0.132794 11.3329
Si 15.6865 1.13496 11.7622
O 15.8687 -2.40297 10.9927
Si 17.466 -2.83278 11.0822
Si 14.4476 -1.56625 10.9989
O 17.5621 -3.7564 12.4689
O 18.502 -1.52355 11.1926
O 17.5846 -3.71904 9.6611
O 13.6929 -1.96583 12.3834
O 14.6356 0.0221112 11.1967
O 13.7198 -1.87698 9.57519
O 17.0586 4.99135 19.4006
Si 18.6775 4.80266 19.5474
Si 15.7558 4.26649 18.77
O 17.6035 1.36616 20.4047
Si 19.1088 1.60166 19.7878
Si 16.0315 1.69364 20.2112
O 19.4562 0.823936 21.2468
O 19.3145 3.25528 19.5892
O 19.3206 0.698838 18.4013
O 15.351 2.15244 21.74
O 16.0829 2.52203 18.5239
O 15.4791 0.680075 19.0039
O 13.95 7.42016 16.311
Si 15.37 8.26388 16.4265
Si 12.8505 6.19433 16.2362
O 16.2345 4.77417 17.0589
Si 17.5116 5.8332 16.7116
Si 14.8511 3.90519 16.0671
O 18.5081 5.6129 18.0591
O 16.7462 7.3158 16.5362
O 18.5095 5.51988 15.4198
O 14.5878 3.83638 17.6926
O 13.525 4.78791 15.821
O 15.5174 3.42674 14.5905
O 10.6677 10.6532 19.3321
Si 11.9916 11.6298 19.3353
Si 9.81346 9.25575 19.3109
O 13.3986 8.01485 19.1324
Si 14.3267 9.37121 19.2343
Si 12.0319 7.11175 19.0579
O 15.2386 9.12766 20.617
O 13.4267 10.7762 19.3138
O 15.1771 9.1918 17.8045
O 11.9431 6.43543 20.5322
O 10.6691 7.95071 18.9103
O 12.1596 6.19028 17.7145
O 7.03775 13.3591 16.6409
Si 8.21315 14.5108 16.6271
Si 6.37055 11.8631 16.6352
O 10.0897 11.1281 16.5228
Si 10.8348 12.5963 16.5315
Si 8.86664 10.0356 16.504
O 11.7442 12.4957 17.9288
O 9.75329 13.8675 16.5818
O 11.7323 12.5025 15.1202
O 8.88257 9.35417 17.9797
O 7.39412 10.6571 16.3339
O 9.13164 9.14192 15.1645
O 3.0832 15.5766 19.4575
Si 4.09214 16.8765 19.4986
Si 2.59497 14.0124 19.424
O 6.37249 13.7692 19.4543
Si 6.93551 15.3163 19.4451
Si 5.31511 12.5157 19.4493
O 7.84349 15.3398 20.8467
O 5.70283 16.4402 19.4828
O 7.84515 15.3357 18.0384
O 5.46953 11.8054 20.9037
O 3.75316 12.895 19.3778
O 5.659 11.6834 18.0895
O -0.743625 17.2471 16.8036
Si -0.238623 18.8038 16.949
Si -1.24066 15.7825 17.3817
O 2.29249 15.9565 16.6047
Si 2.72507 17.553 16.6975
Si 1.45398 14.5365 16.6117
O 3.64984 17.6453 18.0839
O 1.41774 18.5921 16.8087
O 3.61172 17.6686 15.2759
O 1.85403 13.7794 17.9944
O -0.132885 14.7274 16.8153
O 1.75815 13.8093 15.1867
O -5.09878 17.1456 19.3963
Si -4.91078 18.7647 19.5431
Si -4.37218 15.8428 18.7678
O -1.47472 17.7 20.4026
Si -1.70949 19.204 19.7825
Si -1.79979 16.1277 20.209
O -0.930131 19.5507 21.2413
O -3.36425 19.4051 19.5839
O -0.805792 19.4149 18.396
O -2.25647 15.4457 21.7376
O -2.62848 16.1753 18.5213
O -0.784531 15.578 19.0019
O -7.51373 14.0237 16.3085
Si -8.36181 15.4414 16.4229
Si -6.28434 12.9283 16.2331
O -4.87902 16.3203 17.0561
Si -5.94025 17.5948 16.7074
Si -4.0063 14.9399 16.0651
O -5.7217 18.5921 18.055
O -7.41962 16.8223 16.5316
O -5.62796 18.5936 15.4156
O -3.93759 14.676 17.6906
O -4.88154 13.6094 15.8179
O -3.53155 15.6083 14.5883
O -10.7288 10.7239 19.3289
Si -11.7105 12.0441 19.3312
Si -9.32794 9.87533 19.307
O -8.10438 13.4689 19.1286
Si -9.46429 14.3916 19.2305
Si -7.19631 12.1054 19.0547
O -9.22508 15.3049 20.6133
O -10.8644 13.4838 19.3098
O -9.28861 15.2438 17.8012
O -6.52084 12.0195 20.5294
O -8.02801 10.7384 18.9061
O -6.27585 12.2374 17.7113
O -13.4146 7.07957 16.636
Si -14.5709 8.25053 16.6225
Si -11.9163 6.41726 16.6295
O -11.1996 10.142 16.5181
Si -12.6704 10.8819 16.5273
Si -10.102 8.92346 16.5
O -12.5746 11.7919 17.9245
O -13.9359 9.79396 16.5777
O -12.5815 11.7802 15.1163
O -9.42112 8.94366 17.976
O -10.7149 7.44707 16.3308
O -9.21011 9.19332 15.1603
O -15.6166 3.11557 19.4565
Si -16.9192 4.12118 19.4963
Si -14.0513 2.63091 19.4237
O -13.8214 6.41111 19.4485
Si -15.3701 6.96974 19.4406
Si -12.5647 5.35745 19.4436
O -15.3976 7.87783 20.8418
O -16.4893 5.73324 19.4795
O -15.3941 7.87888 18.0338
O -11.8544 5.51677 20.8977
O -12.9384 3.79375 19.374
O -11.7344 5.70429 18.0831
O -17.2778 -0.715754 16.8001
Si -18.8351 -0.211912 16.9464
Si -15.8123 -1.21428 17.3758
O -15.9938 2.32299 16.6049
Si -17.5909 2.75332 16.6952
Si -14.5727 1.48629 16.6115
O -17.6866 3.6772 18.0817
O -18.6273 1.4444 16.806
O -17.7095 3.63936 15.2739
O -13.8176 1.88683 17.9955
O -14.7608 -0.101908 16.8105
O -13.8453 1.79588 15.1874
O -17.1845 -5.07095 19.3926
Si -18.8033 -4.8819 19.5397
Si -15.8815 -4.34608 18.7624
O -17.7297 -1.44564 20.397
Si -19.2349 -1.68083 19.7799
Si -16.1577 -1.77314 20.2034
O -19.5821 -0.902944 21.2389
O -19.4404 -3.33452 19.5814
O -19.4464 -0.777905 18.3934
O -15.4771 -2.23177 21.7322
O -16.2086 -2.60155 18.516
O -15.6053 -0.759482 18.9962
O -14.0753 -7.49889 16.3043
Si -15.4951 -8.34298 16.4197
Si -12.9761 -6.27284 16.2295
O -16.3602 -4.85358 17.0513
Si -17.6373 -5.91266 16.704
Si -14.9771 -3.98437 16.0595
O -18.6338 -5.6922 18.0514
O -16.8716 -7.39521 16.529
O -18.6351 -5.59924 15.412
O -14.7137 -3.91547 17.6849
O -13.6507 -4.86666 15.8139
O -15.6435 -3.50622 14.5828
O -10.7916 -10.7309 19.3265
Si -12.1153 -11.7079 19.3292
Si -9.93795 -9.33312 19.3053
O -13.5237 -8.09326 19.1253
Si -14.4511 -9.44998 19.2275
Si -12.1571 -7.18985 19.0512
O -15.3633 -9.20668 20.6102
O -13.5506 -10.8546 19.3075
O -15.3017 -9.2709 17.7977
O -12.0687 -6.51335 20.5254
O -10.7939 -8.02831 18.9046
O -12.2848 -6.26861 17.7077
O -7.16121 -13.4356 16.6355
Si -8.33625 -14.5877 16.622
Si -6.49391 -11.9396 16.6298
O -10.2131 -11.2057 16.5165
Si -10.9582 -12.6739 16.5255
Si -8.99057 -10.1126 16.4984
O -11.8676 -12.5736 17.9228
O -9.87653 -13.9449 16.5765
O -11.8556 -12.5805 15.1141
O -9.00734 -9.43075 17.9739
O -7.51735 -10.733 16.33
O -9.25557 -9.21922 15.1587
O -3.20688 -15.6533 19.4559
Si -4.21574 -16.9534 19.4956
Si -2.71802 -14.0894 19.42
O -6.49524 -13.846 19.4488
Si -7.05871 -15.393 19.4402
Si -5.43805 -12.5924 19.4438
O -7.96674 -15.4165 20.8416
O -5.82636 -16.5171 19.4789
O -7.96817 -15.4125 18.0334
O -5.59383 -11.8811 20.8976
O -3.87585 -12.9715 19.3756
O -5.78091 -11.7605 18.0835
O 0.620321 -17.3251 16.8041
Si 0.114286 -18.8814 16.9491
Si 1.1164 -15.8602 17.3826
O -2.41617 -16.0338 16.6005
Si -2.84895 -17.6301 16.6945
Si -1.57706 -14.6142 16.6076
O -3.77373 -17.722 18.0809
O -1.54187 -18.6693 16.8072
O -3.73553 -17.7458 15.2729
O -1.97837 -13.8566 17.9897
O 0.00948449 -14.8055 16.8137
O -1.87973 -13.8873 15.182
O 4.97459 -17.2249 19.3981
Si 4.78657 -18.8439 19.5449
Si 4.24822 -15.9221 18.7691
O 1.35061 -17.7777 20.4033
Si 1.58501 -19.2816 19.7828
Si 1.67549 -16.2053 20.2099
O 0.805643 -19.6285 21.2416
O 3.23974 -19.4837 19.585
O 0.681125 -19.4924 18.3964
O 2.13258 -15.5238 21.7387
O 2.50419 -16.2533 18.5224
O 0.660302 -15.6556 19.0027
O 7.39041 -14.1039 16.3131
Si 8.23847 -15.5216 16.4272
Si 6.16118 -13.0083 16.2376
O 4.75516 -16.3998 17.0577
Si 5.81637 -17.6745 16.7094
Si 3.88276 -15.0193 16.0664
O 5.59756 -18.6717 18.0569
O 7.29606 -16.9024 16.535
O 5.50408 -18.6731 15.4174
O 3.81366 -14.7555 17.6919
O 4.7584 -13.6887 15.8211
O 3.4076 -15.687 14.5894
O 10.6058 -10.8045 19.3353
Si 11.5875 -12.1247 19.3372
Si 9.20492 -9.95598 19.3131
O 7.98118 -13.5493 19.1331
Si 9.34109 -14.472 19.235
Si 7.07323 -12.1857 19.0593
O 9.10176 -15.3853 20.6177
O 10.7413 -13.5643 19.315
O 9.1653 -15.3242 17.8056
O 6.39801 -12.0995 20.534
O 7.90527 -10.8189 18.9111
O 6.15264 -12.3176 17.7159
O 13.2911 -7.15993 16.6439
Si 14.4475 -8.33082 16.63
Si 11.7927 -6.49793 16.6373
O 11.0764 -10.2229 16.5242
Si 12.5473 -10.9624 16.5335
Si 9.9788 -9.00425 16.5062
O 12.4516 -11.8725 17.9306
O 13.8126 -9.87432 16.5844
O 12.4585 -11.8608 15.1224
O 9.29829 -9.02415 17.9823
O 10.5919 -7.528 16.3368
O 9.08678 -9.27432 15.1666
O 15.492 -3.19536 19.465
Si 16.7947 -4.20082 19.5047
Si 13.9265 -2.71105 19.4324
O 13.6975 -6.49156 19.4562
Si 15.2464 -7.04984 19.4482
Si 12.4407 -5.43802 19.4513
O 15.2742 -7.95779 20.8494
O 16.3651 -5.81301 19.4872
O 15.2704 -7.95919 18.0415
O 11.7311 -5.59681 20.9058
O 12.8142 -3.87433 19.3804
O 11.6102 -5.7858 18.0911
O 17.1522 0.636704 16.808
Si 18.7094 0.132795 16.9543
Si 15.6865 1.13496 17.3835
O 15.8687 -2.40297 16.6141
Si 17.466 -2.83278 16.7036
Si 14.4476 -1.56625 16.6202
O 17.5621 -3.75639 18.0903
O 18.502 -1.52354 16.814
O 17.5846 -3.71904 15.2825
O 13.6929 -1.96583 18.0048
O 14.6356 0.022111 16.818
O 13.7198 -1.87698 15.1966
O 17.0586 4.99135 25.022
Si 18.6775 4.80266 25.1688
Si 15.7558 4.26649 24.3913
O 17.6035 1.36616 26.0261
Si 19.1088 1.60166 25.4092
Si 16.0315 1.69364 25.8325
O 19.4562 0.823938 26.8682
O 19.3145 3.25528 25.2106
O 19.3206 0.698838 24.0227
O 15.351 2.15244 27.3614
O 16.0829 2.52203 24.1453
O 15.4791 0.680075 24.6252
O 13.95 7.42016 21.9324
Si 15.37 8.26388 22.0479
Si 12.8505 6.19433 21.8575
O 16.2345 4.77417 22.6803
Si 17.5116 5.8332 22.3329
Si 14.8511 3.90519 21.6885
O 18.5081 5.6129 23.6805
O 16.7462 7.3158 22.1575
O 18.5095 5.51988 21.0411
O 14.5878 3.83638 23.314
O 13.525 4.78791 21.4423
O 15.5174 3.42674 20.2119
O 10.6677 10.6532 24.9535
Si 11.9916 11.6298 24.9566
Si 9.81346 9.25575 24.9323
O 13.3986 8.01485 24.7537
Si 14.3267 9.37121 24.8556
Si 12.0319 7.11175 24.6793
O 15.2386 9.12766 26.2384
O 13.4267 10.7762 24.9352
O 15.1771 9.1918 23.4259
O 11.9431 6.43543 26.1535
O 10.6691 7.95071 24.5316
O 12.1596 6.19028 23.3359
O 7.03775 13.3591 22.2623
Si 8.21315 14.5108 22.2484
Si 6.37055 11.8631 22.2566
O 10.0897 11.1281 22.1441
Si 10.8348 12.5963 22.1528
Si 8.86664 10.0356 22.1254
O 11.7442 12.4957 23.5502
O 9.75329 13.8675 22.2032
O 11.7323 12.5025 20.7415
O 8.88257 9.35417 23.6011
O 7.39412 10.6571 21.9552
O 9.13164 9.14192 20.7859
O 3.0832 15.5766 25.0789
Si 4.09214 16.8765 25.12
Si 2.59497 14.0124 25.0454
O 6.37249 13.7692 25.0757
Si 6.93551 15.3163 25.0664
Si 5.31511 12.5157 25.0706
O 7.84349 15.3398 26.468
O 5.70283 16.4402 25.1042
O 7.84515 15.3357 23.6598
O 5.46953 11.8054 26.5251
O 3.75316 12.895 24.9992
O 5.659 11.6834 23.7108
O -0.743623 17.2471 22.4249
Si -0.238622 18.8038 22.5703
Si -1.24066 15.7825 23.0031
O 2.29249 15.9565 22.226
Si 2.72507 17.553 22.3189
Si 1.45398 14.5365 22.2331
O 3.64985 17.6453 23.7053
O 1.41774 18.5921 22.43
O 3.61172 17.6686 20.8973
O 1.85403 13.7794 23.6158
O -0.132885 14.7274 22.4367
O 1.75815 13.8093 20.8081
O -5.09878 17.1456 25.0177
Si -4.91078 18.7647 25.1645
Si -4.37218 15.8428 24.3892
O -1.47472 17.7 26.024
Si -1.70949 19.204 25.4038
Si -1.79978 16.1277 25.8303
O -0.930131 19.5507 26.8627
O -3.36425 19.4051 25.2052
O -0.805793 19.4149 24.0174
O -2.25647 15.4457 27.359
O -2.62848 16.1753 24.1427
O -0.78453 15.578 24.6232
O -7.51373 14.0237 21.9299
Si -8.36181 15.4414 22.0442
Si -6.28434 12.9283 21.8545
O -4.87902 16.3203 22.6775
Si -5.94025 17.5948 22.3288
Si -4.0063 14.9399 21.6865
O -5.7217 18.5921 23.6764
O -7.41962 16.8223 22.1529
O -5.62796 18.5936 21.037
O -3.93759 14.676 23.312
O -4.88154 13.6094 21.4393
O -3.53155 15.6083 20.2097
O -10.7288 10.7239 24.9502
Si -11.7105 12.0441 24.9526
Si -9.32794 9.87533 24.9284
O -8.10438 13.4689 24.7499
Si -9.46429 14.3916 24.8519
Si -7.19631 12.1054 24.6761
O -9.22507 15.3049 26.2347
O -10.8644 13.4838 24.9311
O -9.28861 15.2438 23.4226
O -6.52084 12.0195 26.1508
O -8.028 10.7384 24.5275
O -6.27585 12.2374 23.3327
O -13.4146 7.07957 22.2574
Si -14.5709 8.25053 22.2439
Si -11.9163 6.41726 22.2509
O -11.1996 10.142 22.1395
Si -12.6704 10.8819 22.1487
Si -10.102 8.92346 22.1214
O -12.5746 11.7919 23.5459
O -13.9359 9.79396 22.1991
O -12.5815 11.7802 20.7377
O -9.42112 8.94366 23.5974
O -10.7149 7.44707 21.9522
O -9.21011 9.19332 20.7816
O -15.6166 3.11557 25.0779
Si -16.9192 4.12118 25.1177
Si -14.0513 2.63091 25.045
O -13.8214 6.41111 25.0699
Si -15.3701 6.96974 25.0619
Si -12.5647 5.35746 25.065
O -15.3976 7.87783 26.4631
O -16.4893 5.73325 25.1009
O -15.3941 7.87888 23.6552
O -11.8544 5.51677 26.519
O -12.9384 3.79375 24.9953
O -11.7344 5.70429 23.7045
O -17.2778 -0.715755 22.4215
Si -18.835 -0.211914 22.5678
Si -15.8123 -1.21428 22.9972
O -15.9938 2.32299 22.2263
Si -17.5909 2.75332 22.3166
Si -14.5727 1.48629 22.2328
O -17.6866 3.6772 23.7031
O -18.6273 1.4444 22.4274
O -17.7095 3.63935 20.8953
O -13.8176 1.88683 23.6169
O -14.7608 -0.101909 22.4319
O -13.8453 1.79588 20.8087
O -17.1845 -5.07094 25.014
Si -18.8033 -4.8819 25.1611
Si -15.8815 -4.34609 24.3837
O -17.7297 -1.44565 26.0184
Si -19.2349 -1.68084 25.4013
Si -16.1577 -1.77313 25.8248
O -19.5821 -0.902951 26.8603
O -19.4404 -3.33452 25.2027
O -19.4463 -0.777909 24.0148
O -15.4771 -2.23177 27.3536
O -16.2086 -2.60156 24.1374
O -15.6053 -0.759483 24.6176
O -14.0753 -7.49888 21.9256
Si -15.4951 -8.34298 22.0411
Si -12.9761 -6.27283 21.8508
O -16.3602 -4.85359 22.6726
Si -17.6373 -5.91265 22.3253
Si -14.9772 -3.98438 21.6809
O -18.6338 -5.69221 23.6728
O -16.8716 -7.39521 22.1504
O -18.6351 -5.59925 21.0334
O -14.7137 -3.91548 23.3063
O -13.6507 -4.86666 21.4353
O -15.6435 -3.50621 20.2042
O -10.7916 -10.7309 24.9478
Si -12.1153 -11.7079 24.9506
Si -9.93795 -9.33313 24.9266
O -13.5237 -8.09326 24.7467
Si -14.4511 -9.44998 24.8489
Si -12.1571 -7.18985 24.6725
O -15.3633 -9.20669 26.2316
O -13.5506 -10.8546 24.9289
O -15.3017 -9.2709 23.4191
O -12.0687 -6.51335 26.1467
O -10.7939 -8.02831 24.5259
O -12.2848 -6.2686 23.3291
O -7.16121 -13.4356 22.2568
Si -8.33625 -14.5877 22.2434
Si -6.49391 -11.9396 22.2511
O -10.2131 -11.2057 22.1378
Si -10.9582 -12.6739 22.1469
Si -8.99057 -10.1126 22.1197
O -11.8676 -12.5736 23.5441
O -9.87653 -13.9449 22.1978
O -11.8556 -12.5805 20.7355
O -9.00734 -9.43074 23.5952
O -7.51735 -10.733 21.9514
O -9.25557 -9.21922 20.78
O -3.20688 -15.6533 25.0772
Si -4.21574 -16.9534 25.117
Si -2.71802 -14.0894 25.0414
O -6.49524 -13.846 25.0702
Si -7.05871 -15.393 25.0615
Si -5.43806 -12.5924 25.0652
O -7.96675 -15.4165 26.463
O -5.82636 -16.5171 25.1003
O -7.96817 -15.4125 23.6548
O -5.59383 -11.8811 26.519
O -3.87586 -12.9715 24.997
O -5.78091 -11.7605 23.7048
O 0.62033 -17.3251 22.4255
Si 0.114288 -18.8814 22.5705
Si 1.1164 -15.8602 23.004
O -2.41617 -16.0338 22.2218
Si -2.84895 -17.6301 22.3159
Si -1.57706 -14.6142 22.229
O -3.77373 -17.722 23.7023
O -1.54187 -18.6693 22.4286
O -3.73553 -17.7458 20.8943
O -1.97838 -13.8566 23.6111
O 0.00948578 -14.8055 22.4351
O -1.87973 -13.8873 20.8034
O 4.97459 -17.2249 25.0194
Si 4.78657 -18.8439 25.1663
Si 4.24822 -15.9221 24.3905
O 1.3506 -17.7777 26.0247
Si 1.58501 -19.2816 25.4042
Si 1.67549 -16.2053 25.8313
O 0.805649 -19.6285 26.8629
O 3.23974 -19.4837 25.2064
O 0.681129 -19.4924 24.0177
O 2.13257 -15.5238 27.3601
O 2.50419 -16.2533 24.1438
O 0.660303 -15.6556 24.6241
O 7.39041 -14.1039 21.9345
Si 8.23847 -15.5216 22.0486
Si 6.16118 -13.0083 21.859
O 4.75516 -16.3998 22.679
Si 5.81637 -17.6745 22.3307
Si 3.88276 -15.0193 21.6878
O 5.59756 -18.6717 23.6783
O 7.29607 -16.9024 22.1564
O 5.50408 -18.6731 21.0387
O 3.81365 -14.7555 23.3133
O 4.7584 -13.6887 21.4424
O 3.40761 -15.687 20.2108
O 10.6058 -10.8045 24.9567