3264
 Atoms. Timestep: 15864
O 26.6372 -42.6885 2.75936
Si 27.2578 -44.2133 2.75579
Si 25.583 -41.4308 2.75465
O 23.4632 -44.5248 2.75812
Si 24.4756 -45.823 2.75511
Si 22.8986 -42.9839 2.75388
O 24.0078 -46.6379 4.12088
O 26.0741 -45.3766 2.75508
O 24.0075 -46.6381 1.38957
O 22.105 -42.802 4.15702
O 24.0277 -41.839 2.63981
O 21.9726 -42.8704 1.4257
O 30.4477 -40.0364 0.0277338
Si 31.2074 -41.4969 0.0242217
Si 29.2814 -38.8819 0.0227306
O 27.4588 -42.1601 0.0275224
Si 28.5874 -43.3587 0.024482
Si 26.7533 -40.6785 0.0233609
O 28.1977 -44.2136 1.39027
O 30.1373 -42.7654 0.0239747
O 28.1973 -44.214 20.5095
O 25.9462 -40.5715 1.42654
O 27.7707 -39.4332 -0.0905042
O 25.8208 -40.652 20.5455
O 45.0118 -22.2126 2.75668
Si 46.3432 -23.181 2.75375
Si 43.4532 -21.6987 2.75269
O 43.2836 -25.4453 2.76003
Si 44.8281 -26.015 2.75574
Si 41.9908 -24.4343 2.755
O 44.8612 -26.9536 4.12168
O 45.9512 -24.7934 2.75425
O 44.8607 -26.9542 1.39044
O 41.2202 -24.6997 4.15787
O 42.3464 -22.8658 2.64132
O 41.1446 -24.8269 1.42658
O 46.8562 -17.9516 0.0225519
Si 48.2709 -18.7936 0.0201316
Si 45.2571 -17.5828 0.0185929
O 45.4326 -21.3292 0.0264465
Si 47.0229 -21.7549 0.0223352
Si 44.0524 -20.4414 0.0214292
O 47.1422 -22.6866 1.38817
O 48.0288 -20.4352 0.0209124
O 47.1419 -22.6869 20.5074
O 43.3088 -20.7778 1.42375
O 44.2618 -18.8466 -0.0904244
O 43.2463 -20.9094 20.5429
O 49.9406 4.86485 2.75822
Si 51.5816 4.73383 2.75448
Si 48.3428 4.49015 2.75333
O 50.1525 1.20572 2.75564
Si 51.7673 1.52585 2.7528
Si 48.5221 1.39308 2.75171
O 52.2853 0.742566 4.11857
O 52.0882 3.15379 2.75316
O 52.2855 0.742209 1.38723
O 48.0031 0.760878 4.15299
O 48.0065 2.91701 2.64361
O 48.0047 0.619427 1.4217
O 49.2936 9.46302 0.0260929
Si 50.9397 9.48259 0.0233144
Si 47.7368 8.94345 0.0217672
O 49.8394 5.83827 0.0264161
Si 51.4182 6.30496 0.0232229
Si 48.1987 5.87583 0.0220093
O 52.0056 5.5725 1.38918
O 51.5887 7.95548 0.0227373
O 52.0058 5.57162 20.5083
O 47.7396 5.19968 1.42368
O 47.5461 7.34614 -0.0877477
O 47.7544 5.05742 20.5428
O 48.2281 13.9823 2.75626
Si 49.8655 14.1526 2.75394
Si 46.7255 13.3223 2.75232
O 49.1038 10.4228 2.75789
Si 50.6331 11.0322 2.75463
Si 47.4666 10.3099 2.75307
O 51.2853 10.3564 4.12051
O 50.6517 12.6914 2.75395
O 51.2853 10.3558 1.38918
O 47.0712 9.59474 4.15477
O 46.682 11.7142 2.6426
O 47.0991 9.45412 1.42354
O 46.7531 18.3851 0.0243636
Si 48.368 18.705 0.021937
Si 45.3175 17.5899 0.020532
O 47.9513 14.9207 0.0260236
Si 49.4183 15.6678 0.022639
Si 46.3313 14.6582 0.0210394
O 50.1296 15.0543 1.38841
O 49.2847 17.3218 0.0221434
O 50.1295 15.0541 20.5075
O 46.0029 13.9101 1.42284
O 45.4215 15.9847 -0.08982
O 46.0439 13.7721 20.5421
O 44.8796 22.6338 2.75675
Si 46.4582 23.1009 2.75381
Si 43.5234 21.7096 2.75246
O 46.3914 19.2941 2.75672
Si 47.7834 20.173 2.75328
Si 44.8024 18.8837 2.75185
O 48.5482 19.627 4.1189
O 47.4983 21.8077 2.75345
O 48.548 19.6273 1.38752
O 44.5439 18.1092 4.15387
O 43.7747 20.121 2.6404
O 44.5976 17.9748 1.42262
O 42.6221 26.6913 0.0275328
Si 44.1508 27.3022 0.0242291
Si 41.3573 25.6456 0.0228931
O 44.4361 23.505 0.0256311
Si 45.7409 24.509 0.0225928
Si 42.8917 22.9501 0.0211469
O 46.5526 24.0357 1.38823
O 45.3058 26.1105 0.0231689
O 46.5525 24.0359 20.5072
O 42.7051 22.156 1.42358
O 41.7544 24.0873 -0.0914074
O 42.7717 22.0255 20.5428
O 39.9981 30.5221 2.76028
Si 41.4637 31.272 2.75692
Si 38.8358 29.3636 2.75561
O 42.1 27.5175 2.7586
Si 43.3061 28.6381 2.75562
Si 40.6136 26.8221 2.75418
O 44.158 28.2422 4.12144
O 42.7242 30.1924 2.75577
O 44.1582 28.2418 1.39004
O 40.5007 26.0155 4.15727
O 39.3761 27.849 2.63977
O 40.5803 25.8894 1.42611
O 37.029 34.0922 0.0287678
Si 38.4186 34.9749 0.0255953
Si 35.9795 32.8306 0.0242432
O 39.4014 31.2961 0.0290593
Si 40.4982 32.5238 0.0256609
Si 37.986 30.4656 0.0242948
O 41.3833 32.2088 1.39163
O 39.7742 34.0173 0.0250753
O 41.3838 32.2081 20.5107
O 37.9481 29.6529 1.42789
O 36.6585 31.373 -0.0914855
O 38.0402 29.5333 20.5471
O 33.7406 37.3701 2.75937
Si 35.042 38.3783 2.7563
Si 32.8129 36.0163 2.75497
O 36.3629 34.8072 2.76053
Si 37.3409 36.1315 2.7569
Si 35.0309 33.8486 2.75556
O 38.2515 35.9001 4.12277
O 36.4809 37.551 2.75621
O 38.2519 35.8996 1.39145
O 35.0687 33.0359 4.15911
O 33.6246 34.6283 2.6396
O 35.1716 32.9255 1.42789
O 30.161 40.3273 0.0275362
Si 31.363 41.4522 0.0243428
Si 29.3634 38.8931 0.0229701
O 33.0106 38.0198 0.0284919
Si 33.8611 39.4294 0.0249688
Si 31.7736 36.9414 0.0236642
O 34.7896 39.2837 1.39075
O 32.8727 40.7626 0.0244393
O 34.7897 39.2835 20.5099
O 31.887 36.1358 1.42723
O 30.3008 37.5866 -0.0922444
O 31.9996 36.0356 20.5463
O 26.3218 42.9382 2.75906
Si 27.414 44.17 2.75588
Si 25.6611 41.436 2.75439
O 29.3738 40.906 2.75878
Si 30.0895 42.3886 2.75564
Si 28.2425 39.7172 2.75428
O 31.0275 42.33 4.12127
O 28.9812 43.624 2.75562
O 31.0274 42.3301 1.38999
O 28.4305 38.9255 4.15773
O 26.716 40.2225 2.63909
O 28.5516 38.8365 1.42638
O 22.2567 45.1806 0.0286649
Si 23.2295 46.5088 0.0253729
Si 21.7384 43.6236 0.0238456
O 25.4843 43.4412 0.0272397
Si 26.059 44.9839 0.0245914
Si 24.4684 42.1523 0.0230639
O 26.9983 45.0128 1.39025
O 24.8407 46.1109 0.0247839
O 26.9983 45.0129 20.5094
O 24.7294 41.3815 1.42645
O 22.9015 42.5134 -0.0918346
O 24.858 41.3042 20.5456
O 18.0004 47.0353 2.76106
Si 18.8455 48.4481 2.75734
Si 17.6289 45.4368 2.7559
O 21.3757 45.6036 2.7595
Si 21.8046 47.193 2.75671
Si 20.4841 44.2259 2.75516
O 22.7371 47.3092 4.12244
O 20.4868 48.2019 2.75673
O 22.7373 47.3092 1.39118
O 20.8155 43.4828 4.15865
O 18.8904 44.4397 2.64011
O 20.9511 43.4176 1.42727
O 13.5899 48.4862 0.031019
Si 14.3003 49.9713 0.0268942
Si 13.3684 46.8601 0.0257005
O 17.0839 47.3744 0.0287637
Si 17.3633 48.9968 0.0260453
Si 16.3239 45.9199 0.024571
O 18.2808 49.1993 1.39179
O 15.9574 49.8787 0.0260322
O 18.2811 49.1993 20.511
O 16.7231 45.2109 1.42811
O 14.7172 45.9846 -0.0902696
O 16.8641 45.1585 20.5471
O 9.06384 49.5219 2.76128
Si 9.6337 51.0664 2.7578
Si 8.99389 47.8823 2.75639
O 12.6458 48.7387 2.76121
Si 12.7736 50.38 2.75818
Si 12.024 47.22 2.757
O 13.6682 50.6669 4.12402
O 11.2921 51.1279 2.75764
O 13.6689 50.6668 1.39285
O 12.4873 46.5512 4.16057
O 10.4181 47.1355 2.64195
O 12.6327 46.5121 1.42918
O 4.46155 50.1355 0.0305949
Si 4.88619 51.726 0.0271016
Si 4.5433 48.4964 0.0257855
O 8.10013 49.6861 0.0293128
Si 8.07591 51.3322 0.0264808
Si 7.62162 48.1163 0.0250688
O 8.94039 51.7005 1.39215
O 6.53181 51.9403 0.0264674
O 8.94031 51.7006 20.5113
O 8.14584 47.493 1.42822
O 6.03027 47.8839 -0.088712
O 8.29243 47.4678 20.5472
O -0.177504 50.322 2.7607
Si 0.0984316 51.945 2.75769
Si 0.0549238 48.6974 2.75619
O 3.48678 50.2102 2.76174
Si 3.31073 51.847 2.75839
Si 3.15523 48.6029 2.75711
O 4.13711 52.2936 4.12425
O 1.71721 52.3101 2.75766
O 4.13774 52.2935 1.393
O 3.73465 48.0305 4.16027
O 1.59214 48.2246 2.6431
O 3.88324 48.0191 1.42891
O -4.81429 50.0805 0.0294591
Si -4.68908 51.722 0.0263023
Si -4.43323 48.4843 0.0248661
O -1.15535 50.3066 0.0296226
Si -1.48142 51.9203 0.026374
Si -1.33728 48.6756 0.0249025
O -0.699437 52.4411 1.39208
O -3.1108 52.2347 0.0260406
O -0.699366 52.441 20.5112
O -0.706503 48.1589 1.42757
O -2.85897 48.1548 -0.0876364
O -0.55938 48.1613 20.5467
O -9.40943 49.4139 2.75959
Si -9.43573 51.06 2.75706
Si -8.88308 47.8595 2.7555
O -5.78672 49.9754 2.76088
Si -6.25992 51.5522 2.75759
Si -5.81771 48.3345 2.75619
O -5.52937 52.1426 4.1234
O -7.91128 51.7155 2.75711
O -5.52904 52.1427 1.39208
O -5.14167 47.8781 4.1587
O -7.28513 47.676 2.64394
O -4.99601 47.8939 1.4274
O -13.9238 48.3281 0.0283988
Si -14.1013 49.9647 0.0255555
Si -13.2567 46.8286 0.0241487
O -10.368 49.2199 0.0288211
Si -10.9842 50.7465 0.0257487
Si -10.2479 47.5832 0.0242175
O -10.311 51.4017 1.39149
O -12.6435 50.7575 0.0255308
O -10.3109 51.4016 20.5106
O -9.53226 47.1909 1.42643
O -11.6487 46.7926 -0.0872317
O -9.38975 47.2198 20.5456
O -18.3191 46.8319 2.75989
Si -18.6465 48.4453 2.75712
Si -17.517 45.4002 2.75548
O -14.8605 48.0469 2.76009
Si -15.6145 49.5103 2.75687
Si -14.5904 46.4281 2.75547
O -15.0042 50.2246 4.12256
O -17.2678 49.3687 2.75682
O -15.0042 50.2245 1.39123
O -13.8416 46.1032 4.15762
O -15.9125 45.512 2.64419
O -13.7025 46.145 1.42639
O -22.5582 44.9375 0.0291787
Si -23.0327 46.5139 0.0261798
Si -21.6276 43.5858 0.0247446
O -19.2261 46.4657 0.0289371
Si -20.1115 47.8536 0.0258526
Si -18.8081 44.8787 0.0242008
O -19.5695 48.6209 1.3916
O -21.7449 47.5604 0.0257867
O -19.5694 48.6209 20.5107
O -18.0325 44.6241 1.42628
O -20.0402 43.8448 -0.0867883
O -17.8982 44.6784 20.5454
O -40.1989 30.1517 2.76536
Si -41.3266 31.3511 2.76189
Si -38.7631 29.3569 2.76088
O -37.8976 33.0058 2.76556
Si -39.309 33.8531 2.76208
Si -36.8162 31.7714 2.76085
O -39.1659 34.7814 4.12804
O -40.6403 32.8621 2.76143
O -39.1653 34.7821 1.39671
O -36.0103 31.8872 4.16423
O -37.4585 30.2971 2.64563
O -35.9108 31.9995 1.43297
O -42.8038 26.3078 0.0332634
Si -44.0375 27.3978 0.0299629
Si -41.3004 25.6497 0.0291694
O -40.7766 29.3632 0.0348021
Si -42.2605 30.0761 0.0305934
Si -39.5857 28.2341 0.0296198
O -42.204 31.0139 1.39648
O -43.4941 28.9659 0.0297421
O -42.2035 31.0143 20.5156
O -38.7942 28.4237 1.43312
O -40.0886 26.7068 -0.0861022
O -38.7054 28.5453 20.5523
O -49.9996 4.44222 2.7655
Si -51.5899 4.86813 2.76134
Si -48.3605 4.52221 2.76049
O -49.5465 8.08005 2.76309
Si -51.1926 8.05721 2.76037
Si -47.9771 7.60034 2.75902
O -51.5601 8.92162 4.12618
O -51.8024 6.51388 2.76042
O -51.5601 8.92207 1.39485
O -47.3525 8.12628 4.16101
O -47.7459 6.00854 2.64853
O -47.3279 8.26853 1.42971
O -50.1915 -0.196828 0.0340514
Si -51.8142 0.0809018 0.030212
Si -48.5667 0.0337255 0.0292575
O -50.0756 3.46707 0.033333
Si -51.7126 3.29296 0.0300507
Si -48.4686 3.13398 0.0291554
O -52.1582 4.11975 1.39592
O -52.1776 1.70001 0.0295568
O -52.1583 4.12037 20.515
O -47.8954 3.71429 1.43164
O -48.0918 1.57038 -0.0830749
O -47.8839 3.86003 20.5507
O -49.955 -4.83361 2.76313
Si -51.5964 -4.70643 2.76031
Si -48.3582 -4.45471 2.75914
O -50.1771 -1.17477 2.76518
Si -51.7912 -1.49876 2.76147
Si -48.5463 -1.35854 2.76053
O -52.3111 -0.716703 4.1274
O -52.1074 -3.12772 2.76038
O -52.3112 -0.715883 1.39616
O -48.0291 -0.72813 4.16316
O -48.0269 -2.88074 2.64793
O -48.0311 -0.581405 1.43179
O -49.2936 -9.42936 0.0300134
Si -50.9397 -9.4535 0.0275126
Si -47.7384 -8.90546 0.0260153
O -49.8507 -5.80632 0.0328933
Si -51.4282 -6.27727 0.0289627
Si -48.2099 -5.83945 0.0278794
O -52.018 -5.54611 1.39476
O -51.5935 -7.92836 0.0279822
O -52.0179 -5.54575 20.5139
O -47.7527 -5.16327 1.4301
O -47.5528 -7.3076 -0.0836515
O -47.7684 -5.01882 20.5492
O -48.2142 -13.9454 2.76063
Si -49.8512 -14.1204 2.75823
Si -46.7136 -13.2811 2.75634
O -49.1006 -10.3887 2.76203
Si -50.6283 -11.0022 2.75878
Si -47.4637 -10.271 2.75733
O -51.2826 -10.328 4.12441
O -50.6418 -12.6615 2.75844
O -51.2825 -10.3282 1.39315
O -47.0706 -9.55463 4.15903
O -46.6748 -11.6728 2.64728
O -47.099 -9.41416 1.42775
O -46.7262 -18.3436 0.0301483
Si -48.3402 -18.6682 0.0274054
Si -45.2927 -17.5447 0.0256812
O -47.9344 -14.8832 0.0295167
Si -49.3994 -15.6342 0.0269331
Si -46.3151 -14.6159 0.0250224
O -50.1126 -15.0226 1.39255
O -49.261 -17.2878 0.0271029
O -50.1125 -15.0229 20.5117
O -45.9893 -13.8662 1.42656
O -45.4013 -15.9398 -0.0846799
O -46.0302 -13.7295 20.5457
O -44.8408 -22.5872 2.76348
Si -46.4182 -23.0586 2.75998
Si -43.4869 -21.6597 2.7588
O -46.3617 -19.2521 2.76155
Si -47.7515 -20.1345 2.75877
Si -44.7739 -18.8373 2.75698
O -48.5177 -19.5908 4.12444
O -47.4619 -21.7685 2.75911
O -48.5177 -19.5909 1.39307
O -44.5178 -18.0618 4.15895
O -43.7427 -20.0718 2.64597
O -44.5716 -17.9278 1.42771
O -42.5723 -26.6388 0.0333168
Si -44.0996 -27.2532 0.0294713
Si -41.3098 -25.5902 0.0285502
O -44.3946 -23.4575 0.0319026
Si -45.697 -24.4645 0.0287277
Si -42.8515 -22.8987 0.027482
O -46.5099 -23.9938 1.39455
O -45.2578 -26.0648 0.028669
O -46.5101 -23.9935 20.5136
O -42.6672 -22.1045 1.43019
O -41.7112 -24.0329 -0.0853821
O -42.7344 -21.9734 20.5493
O -39.939 -30.4629 2.76446
Si -41.4031 -31.2156 2.76092
Si -38.7787 -29.3023 2.75978
O -42.0476 -27.4637 2.76411
Si -43.2515 -28.5865 2.76079
Si -40.5627 -26.7649 2.75983
O -44.1045 -28.1929 4.12661
O -42.6663 -30.1393 2.76041
O -44.1048 -28.1926 1.39534
O -40.4522 -25.9578 4.16289
O -39.3225 -27.7888 2.64599
O -40.5319 -25.8323 1.43158
O -36.9644 -34.0278 0.0323772
Si -38.3529 -34.9123 0.0292958
Si -35.9158 -32.7654 0.0278197
O -39.3403 -31.236 0.0330105
Si -40.4357 -32.4648 0.0295995
Si -37.9262 -30.4031 0.0284739
O -41.3214 -32.1517 1.39543
O -39.7099 -33.9571 0.0290286
O -41.3216 -32.1514 20.5145
O -37.8909 -29.589 1.4314
O -36.5967 -31.3083 -0.0848681
O -37.9816 -29.4718 20.5505
O -33.6749 -37.3046 2.76244
Si -34.9761 -38.313 2.7599
Si -32.7469 -35.951 2.75819
O -36.2969 -34.7427 2.76399
Si -37.2747 -36.0671 2.76058
Si -34.9655 -33.7832 2.75913
O -38.1854 -35.8369 4.12641
O -36.4149 -37.4864 2.75985
O -38.1856 -35.8365 1.39512
O -35.0057 -32.9687 4.16175
O -33.5585 -34.5624 2.64644
O -35.106 -32.8613 1.43044
O -30.0985 -40.2657 0.0300129
Si -31.3014 -41.3897 0.0276596
Si -29.2992 -38.8325 0.0263328
O -32.9448 -37.9554 0.0320028
Si -33.7965 -39.3642 0.0285714
Si -31.7073 -36.8775 0.0268861
O -34.7245 -39.2185 1.39445
O -32.8101 -40.6986 0.0278185
O -34.7247 -39.2181 20.5135
O -31.8222 -36.0697 1.42927
O -30.2347 -37.5242 -0.0856146
O -31.9314 -35.9726 20.5485
O -26.2644 -42.8842 2.76075
Si -27.3585 -44.1144 2.758
Si -25.601 -41.3832 2.75711
O -29.3121 -40.8464 2.76304
Si -30.0301 -42.3279 2.75895
Si -28.1792 -39.6591 2.75769
O -30.9676 -42.2682 4.12477
O -28.9246 -43.5655 2.75817
O -30.9677 -42.2678 1.39337
O -28.3675 -38.8655 4.16017
O -26.6534 -40.1671 2.64445
O -28.4858 -38.7786 1.42899
O -22.2044 -45.1358 0.0285347
Si -23.1798 -46.4619 0.0257918
Si -21.6826 -43.5799 0.0244015
O -25.4278 -43.3893 0.0308941
Si -26.0056 -44.9308 0.0266636
Si -24.4095 -42.1023 0.0258281
O -26.9448 -44.9581 1.39241
O -24.7901 -46.0606 0.0258826
O -26.9448 -44.9579 20.5115
O -24.67 -41.33 1.42856
O -22.8432 -42.4666 -0.0878634
O -24.7966 -41.2539 20.5478
O -17.9525 -47.0006 2.75892
Si -18.801 -48.4114 2.75611
Si -17.5767 -45.4032 2.75422
O -21.324 -45.561 2.76045
Si -21.7568 -47.1494 2.75707
Si -20.4293 -44.1853 2.75574
O -22.6895 -47.2636 4.12281
O -20.4416 -48.1614 2.75645
O -22.6896 -47.2634 1.39155
O -20.7609 -43.4403 4.15823
O -18.8357 -44.4023 2.64329
O -20.8929 -43.3766 1.42694
O -13.546 -48.4645 0.0287418
Si -14.2606 -49.9477 0.0256185
Si -13.3194 -46.8391 0.0237686
O -17.0361 -47.3426 0.0268633
Si -17.3204 -48.9641 0.0247843
Si -16.2725 -45.89 0.0228767
O -18.2388 -49.1639 1.39034
O -15.9173 -49.8503 0.0252777
O -18.2384 -49.1642 20.5095
O -16.6728 -45.1785 1.42491
O -14.6655 -45.9588 -0.0876532
O -16.8079 -45.1279 20.5439
O -9.02336 -49.5164 2.76225
Si -9.59791 -51.0591 2.75868
Si -8.94786 -47.877 2.75717
O -12.6021 -48.7205 2.75891
Si -12.7353 -50.3613 2.75697
Si -11.9757 -47.2036 2.75504
O -13.6312 -50.6451 4.12254
O -11.2565 -51.1145 2.75775
O -13.631 -50.6453 1.39129
O -12.4397 -46.5322 4.15721
O -10.3692 -47.1245 2.64386
O -12.5796 -46.4941 1.42586
O -4.42295 -50.1466 0.0344348
Si -4.85247 -51.7359 0.0299158
Si -4.49959 -48.5073 0.0293041
O -8.0602 -49.6844 0.0300952
Si -8.04099 -51.3306 0.027482
Si -7.57645 -48.1162 0.0258064
O -8.90674 -51.6957 1.39315
O -6.49895 -51.9441 0.0281794
O -8.90679 -51.6958 20.5122
O -8.09874 -47.4908 1.42874
O -5.98427 -47.8898 -0.0880831
O -8.24458 -47.4652 20.5479
O 0.21623 -50.348 2.76555
Si -0.0644169 -51.9702 2.76166
Si -0.0125655 -48.723 2.76101
O -3.44886 -50.2251 2.76526
Si -3.27692 -51.8623 2.76129
Si -3.11226 -48.6189 2.76058
O -4.10478 -52.306 4.12731
O -1.68457 -52.3302 2.7606
O -4.10588 -52.3059 1.39594
O -3.68731 -48.0448 4.16481
O -1.54814 -48.2464 2.64261
O -3.84027 -48.0324 1.43359
O 4.85352 -50.1164 0.030876
Si 4.72477 -51.7576 0.0282745
Si 4.4747 -48.5196 0.0269092
O 1.19299 -50.3352 0.034962
Si 1.51614 -51.9495 0.0303168
Si 1.37885 -48.7047 0.0296969
O 0.733189 -52.4683 1.39643
O 3.14516 -52.2669 0.0285505
O 0.731842 -52.4682 20.5156
O 0.753731 -48.1867 1.43434
O 2.90132 -48.188 -0.0897326
O 0.598691 -48.1888 20.5535
O 9.44912 -49.455 2.75875
Si 9.47344 -51.1011 2.75684
Si 8.92382 -47.9003 2.75525
O 5.8249 -50.0128 2.76398
Si 6.2965 -51.5901 2.75948
Si 5.85841 -48.372 2.75826
O 5.56487 -52.1796 4.12541
O 7.94797 -51.7549 2.75778
O 5.56419 -52.1794 1.39413
O 5.18663 -47.9143 4.16229
O 7.32633 -47.7159 2.64071
O 5.03474 -47.9308 1.43103
O 13.9637 -48.3708 0.0255172
Si 14.1408 -50.0075 0.0233064
Si 13.2966 -46.8714 0.0216258
O 10.4072 -49.2618 0.0295997
Si 11.0229 -50.7886 0.0254509
Si 10.2881 -47.6251 0.0240002
O 10.3487 -51.4434 1.39121
O 12.6824 -50.7998 0.0243201
O 10.3487 -51.4432 20.5103
O 9.57508 -47.2317 1.42721
O 11.6888 -46.8354 -0.091244
O 9.42837 -47.2617 20.5465
O 18.3586 -46.8731 2.75663
Si 18.6868 -48.4863 2.75412
Si 17.5556 -45.4419 2.75246
O 14.9001 -48.0894 2.75815
Si 15.6546 -49.5526 2.75456
Si 14.6297 -46.4708 2.75294
O 15.0438 -50.2671 4.12012
O 17.3081 -49.4102 2.75437
O 15.0442 -50.2668 1.38883
O 13.8822 -46.1455 4.15569
O 15.9514 -45.5546 2.63926
O 13.7409 -46.1882 1.42446
O 22.5958 -44.9739 0.0272823
Si 23.072 -46.5498 0.0237724
Si 21.6631 -43.6236 0.022581
O 19.2648 -46.5065 0.0257219
Si 20.152 -47.8933 0.0228281
Si 18.8456 -44.9198 0.0211647
O 19.6101 -48.6611 1.38848
O 21.7851 -47.5978 0.0231402
O 19.6103 -48.661 20.5075
O 18.0715 -44.6651 1.42392
O 20.0765 -43.885 -0.0920979
O 17.9346 -44.7205 20.5431
O -26.6041 42.66 2.76221
Si -27.2221 44.1859 2.7585
Si -25.5528 41.3998 2.75721
O -23.4273 44.4893 2.76032
Si -24.437 45.7896 2.75752
Si -22.8649 42.9476 2.75605
O -23.968 46.6037 4.1232
O -26.0363 45.3468 2.75774
O -23.968 46.6037 1.39187
O -22.0693 42.7654 4.15819
O -23.9962 41.8044 2.64506
O -21.9403 42.8319 1.42692
O -30.4222 40.0182 0.0318197
Si -31.1783 41.4806 0.0283526
Si -29.2591 38.8604 0.0269125
O -27.4279 42.1334 0.0299904
Si -28.5534 43.3349 0.0272516
Si -26.7258 40.6501 0.0258963
O -28.1616 44.1888 1.39295
O -30.1048 42.7461 0.0274983
O -28.1616 44.1889 20.5121
O -25.9172 40.5421 1.42824
O -27.7466 39.4073 -0.0856082
O -25.7942 40.6205 20.5474
O -33.9804 37.0355 2.7647
Si -34.8682 38.4219 2.76089
Si -32.7155 35.99 2.75942
O -31.1938 39.4178 2.76191
Si -32.4254 40.5103 2.7597
Si -30.3579 38.0055 2.75817
O -32.1141 41.3967 4.12543
O -33.916 39.781 2.75999
O -32.114 41.3969 1.39415
O -29.543 37.9725 4.16069
O -31.2599 36.674 2.64606
O -29.4273 38.0623 1.42936
O -37.2491 33.7375 0.0343258
Si -38.261 35.0361 0.0307432
Si -35.893 32.8134 0.0295617
O -34.6937 36.3666 0.0323947
Si -36.0208 37.3408 0.0296233
Si -33.731 35.0375 0.0280805
O -35.7924 38.252 1.39543
O -37.4379 36.4771 0.0297106
O -35.7923 38.2523 20.5145
O -32.917 35.0793 1.43092
O -34.5068 33.6287 -0.0852627
O -32.8092 35.1802 20.55
O 33.9957 -37.0418 2.76
Si 34.8877 -38.4255 2.75588
Si 32.7275 -36.0001 2.75457
O 31.2172 -39.4335 2.75791
Si 32.4519 -40.5224 2.75551
Si 30.3771 -38.0238 2.754
O 32.1431 -41.4099 4.12121
O 33.9401 -39.788 2.75542
O 32.1432 -41.41 1.38993
O 29.5625 -37.9931 4.15664
O 31.2743 -36.689 2.64182
O 29.4467 -38.0834 1.42524
O 37.2521 -33.7322 0.0284213
Si 38.2681 -35.0275 0.0249287
Si 35.8932 -32.8121 0.0234406
O 34.7063 -36.37 0.0271996
Si 36.0363 -37.3402 0.0245586
Si 33.7394 -35.0441 0.0232315
O 35.8111 -38.2524 1.39023
O 37.4503 -36.4715 0.0244973
O 35.8112 -38.2526 20.5095
O 32.9253 -35.0891 1.42581
O 34.5098 -33.6323 -0.0889789
O 32.8186 -35.1896 20.5448
O 40.1896 -30.1365 2.7604
Si 41.3207 -31.3326 2.75673
Si 38.7516 -29.3457 2.75557
O 37.8977 -32.9978 2.75869
Si 39.3116 -33.8411 2.75621
Si 36.8126 -31.7666 2.75468
O 39.1717 -34.77 4.12197
O 40.6395 -32.8458 2.75604
O 39.1716 -34.7704 1.39074
O 36.0061 -31.8866 4.15734
O 37.4497 -30.2899 2.64221
O 35.9091 -31.9965 1.42586
O 42.7835 -26.2855 0.0278731
Si 44.0199 -27.3724 0.0245184
Si 41.2786 -25.6308 0.0236876
O 40.7649 -29.3459 0.0288214
Si 42.2505 -30.0552 0.025399
Si 39.5709 -28.2201 0.0242564
O 42.197 -30.9928 1.3914
O 43.481 -28.9419 0.0243671
O 42.1965 -30.9936 20.5105
O 38.7792 -28.4132 1.42721
O 40.0693 -26.691 -0.0895311
O 38.692 -28.5329 20.5463
O -45.0405 22.2391 2.76258
Si -46.3699 23.2101 2.7595
Si -43.4827 21.7229 2.75813
O -43.3056 25.4693 2.76528
Si -44.8491 26.0417 2.76121
Si -42.0152 24.4554 2.76049
O -44.8798 26.9807 4.1271
O -45.9744 24.8219 2.75999
O -44.8795 26.9812 1.39582
O -41.2447 24.7177 4.16398
O -42.374 22.8878 2.64505
O -41.1675 24.8468 1.43269
O -46.8911 17.9809 0.0304277
Si -48.3047 18.8246 0.0274195
Si -45.2924 17.6103 0.0257776
O -45.4626 21.3571 0.0313789
Si -47.0524 21.7846 0.0281272
Si -44.0838 20.467 0.0268561
O -47.1697 22.7171 1.39378
O -48.0601 20.466 0.0276419
O -47.1698 22.7169 20.5129
O -43.3402 20.8012 1.42955
O -44.2957 18.8727 -0.0857443
O -43.2766 20.9341 20.5487
O -48.3415 13.5698 2.76146
Si -49.8269 14.2796 2.75871
Si -46.7155 13.3479 2.75679
O -47.2303 17.0627 2.76124
Si -48.8526 17.3422 2.75869
Si -45.7751 16.304 2.75708
O -49.0555 18.2598 4.12431
O -49.7347 15.9366 2.75867
O -49.0556 18.2596 1.39304
O -45.065 16.7068 4.15917
O -45.8389 14.6967 2.64683
O -45.0147 16.8425 1.42781
O -49.3809 9.04416 0.0325705
Si -50.9253 9.61443 0.0290124
Si -47.7413 8.97282 0.0277381
O -48.595 12.6245 0.0297221
Si -50.2362 12.7534 0.02744
Si -47.0762 12.0027 0.0255119
O -50.5226 13.6484 1.393
O -50.9855 11.2728 0.0280526
O -50.5227 13.648 20.5121
O -46.4057 12.47 1.42705
O -46.9923 10.3963 -0.0832978
O -46.3687 12.6077 20.5461
O 48.3031 -13.5395 2.7518
Si 49.7889 -14.2485 2.74974
Si 46.6769 -13.3184 2.74784
O 47.1945 -17.0331 2.75482
Si 48.817 -17.3114 2.75133
Si 45.7386 -16.2755 2.74993
O 49.0212 -18.2284 4.11703
O 49.698 -15.9053 2.75045
O 49.0211 -18.2283 1.3858
O 45.0282 -16.6804 4.15136
O 45.8009 -14.6679 2.64127
O 44.9792 -16.8137 1.41999
O 49.3415 -9.01383 0.0203702
Si 50.8858 -9.58404 0.0179934
Si 47.7019 -8.94186 0.0161019
O 48.5561 -12.5936 0.0208902
Si 50.1973 -12.7226 0.0183806
Si 47.0371 -11.9723 0.0165738
O 50.4843 -13.6173 1.38394
O 50.9465 -11.2422 0.0182321
O 50.4843 -13.6169 20.5031
O 46.3661 -12.4421 1.41719
O 46.9524 -10.3656 -0.0898082
O 46.3303 -12.5762 20.5363
O 49.9637 -4.41213 2.75376
Si 51.5537 -4.83925 2.75042
Si 48.3244 -4.48993 2.74902
O 49.5074 -8.04848 2.75131
Si 51.1536 -8.02743 2.74931
Si 47.9381 -7.5683 2.74739
O 51.5208 -8.89218 4.11484
O 51.7649 -6.48495 2.74989
O 51.5209 -8.89167 1.38353
O 47.3126 -8.09789 4.14776
O 47.7075 -5.97589 2.64213
O 47.2891 -8.23367 1.41644
O 50.1642 0.226895 0.0253714
Si 51.7864 -0.0534557 0.021403
Si 48.5389 -8.91918e-05 0.0204349
O 50.0414 -3.43614 0.0215453
Si 51.6787 -3.26483 0.0191987
Si 48.4348 -3.10075 0.0177121
O 52.1231 -4.09246 1.38475
O 52.1469 -1.67304 0.0201232
O 52.1232 -4.09212 20.5039
O 47.8601 -3.68435 1.41836
O 48.0603 -1.53602 -0.0883241
O 47.849 -3.82283 20.5375
O 26.6372 -42.6885 8.22197
Si 27.2578 -44.2133 8.21839
Si 25.583 -41.4308 8.21726
O 23.4632 -44.5248 8.22073
Si 24.4756 -45.823 8.21771
Si 22.8986 -42.9839 8.21648
O 24.0078 -46.6379 9.58348
O 26.0741 -45.3766 8.21769
O 24.0075 -46.6381 6.85218
O 22.105 -42.802 9.61962
O 24.0277 -41.839 8.10242
O 21.9726 -42.8704 6.88831
O 30.4477 -40.0364 5.49034
Si 31.2074 -41.4969 5.48683
Si 29.2814 -38.8819 5.48534
O 27.4588 -42.1601 5.49013
Si 28.5874 -43.3587 5.48709
Si 26.7533 -40.6785 5.48597
O 28.1977 -44.2136 6.85288
O 30.1373 -42.7654 5.48658
O 28.1973 -44.214 4.12168
O 25.9462 -40.5715 6.88915
O 27.7707 -39.4332 5.3721
O 25.8208 -40.652 4.15773
O 45.0118 -22.2126 8.21929
Si 46.3432 -23.181 8.21635
Si 43.4532 -21.6987 8.21529
O 43.2836 -25.4453 8.22263
Si 44.8281 -26.015 8.21835
Si 41.9908 -24.4343 8.2176
O 44.8612 -26.9536 9.58429
O 45.9512 -24.7934 8.21685
O 44.8607 -26.9542 6.85305
O 41.2202 -24.6997 9.62048
O 42.3464 -22.8658 8.10392
O 41.1446 -24.8269 6.88918
O 46.8562 -17.9516 5.48516
Si 48.2709 -18.7936 5.48274
Si 45.2571 -17.5828 5.4812
O 45.4326 -21.3292 5.48905
Si 47.0229 -21.7549 5.48494
Si 44.0524 -20.4414 5.48404
O 47.1422 -22.6866 6.85077
O 48.0288 -20.4351 5.48352
O 47.1419 -22.6869 4.11954
O 43.3088 -20.7778 6.88636
O 44.2618 -18.8466 5.37218
O 43.2463 -20.9094 4.15504
O 49.9406 4.86485 8.22082
Si 51.5816 4.73383 8.21709
Si 48.3428 4.49015 8.21593
O 50.1525 1.20572 8.21825
Si 51.7673 1.52585 8.21541
Si 48.5221 1.39308 8.21431
O 52.2853 0.742565 9.58118
O 52.0882 3.15379 8.21576
O 52.2855 0.74221 6.84984
O 48.0031 0.760876 9.61559
O 48.0065 2.91701 8.10622
O 48.0047 0.61943 6.8843
O 49.2936 9.46302 5.4887
Si 50.9397 9.48259 5.48592
Si 47.7368 8.94345 5.48437
O 49.8394 5.83826 5.48902
Si 51.4182 6.30495 5.48583
Si 48.1987 5.87583 5.48462
O 52.0056 5.5725 6.85179
O 51.5887 7.95548 5.48534
O 52.0058 5.57161 4.12044
O 47.7396 5.19968 6.88628
O 47.5461 7.34614 5.37486
O 47.7544 5.05742 4.15497
O 48.2281 13.9823 8.21886
Si 49.8655 14.1526 8.21655
Si 46.7255 13.3223 8.21493
O 49.1038 10.4228 8.2205
Si 50.6331 11.0322 8.21723
Si 47.4666 10.3099 8.21567
O 51.2853 10.3564 9.58312
O 50.6517 12.6914 8.21656
O 51.2853 10.3558 6.85179
O 47.0712 9.59474 9.61737
O 46.682 11.7142 8.1052
O 47.0991 9.45412 6.88615
O 46.7531 18.3851 5.48697
Si 48.368 18.705 5.48454
Si 45.3175 17.5899 5.48314
O 47.9513 14.9207 5.48863
Si 49.4183 15.6678 5.48525
Si 46.3313 14.6582 5.48365
O 50.1296 15.0543 6.85102
O 49.2847 17.3218 5.48475
O 50.1295 15.0541 4.11968
O 46.0029 13.9101 6.88545
O 45.4215 15.9847 5.37279
O 46.0439 13.7721 4.15425
O 44.8796 22.6338 8.21936
Si 46.4582 23.1009 8.21642
Si 43.5234 21.7096 8.21506
O 46.3914 19.2941 8.21933
Si 47.7834 20.173 8.21588
Si 44.8024 18.8837 8.21445
O 48.5482 19.627 9.58151
O 47.4983 21.8077 8.21606
O 48.548 19.6273 6.85012
O 44.5439 18.1092 9.61648
O 43.7747 20.121 8.10301
O 44.5976 17.9748 6.88523
O 42.6221 26.6913 5.49014
Si 44.1508 27.3022 5.48684
Si 41.3573 25.6456 5.4855
O 44.4361 23.505 5.48824
Si 45.7409 24.509 5.4852
Si 42.8917 22.9501 5.48375
O 46.5526 24.0357 6.85084
O 45.3058 26.1105 5.48577
O 46.5525 24.0359 4.11942
O 42.7051 22.156 6.88618
O 41.7544 24.0873 5.3712
O 42.7717 22.0255 4.15503
O 39.9981 30.5221 8.22289
Si 41.4637 31.272 8.21952
Si 38.8358 29.3636 8.21822
O 42.1 27.5175 8.22121
Si 43.3061 28.6381 8.21823
Si 40.6136 26.8221 8.21678
O 44.158 28.2422 9.58405
O 42.7242 30.1924 8.21838
O 44.1582 28.2418 6.85264
O 40.5007 26.0155 9.61987
O 39.3761 27.849 8.10237
O 40.5803 25.8894 6.88871
O 37.029 34.0922 5.49137
Si 38.4186 34.9749 5.4882
Si 35.9795 32.8306 5.48685
O 39.4014 31.2961 5.49167
Si 40.4982 32.5238 5.48827
Si 37.986 30.4656 5.4869
O 41.3833 32.2088 6.85423
O 39.7742 34.0173 5.48768
O 41.3838 32.2081 4.12287
O 37.9481 29.6529 6.89049
O 36.6585 31.373 5.37112
O 38.0402 29.5333 4.15926
O 33.7406 37.3701 8.22198
Si 35.042 38.3783 8.2189
Si 32.8129 36.0163 8.21758
O 36.3629 34.8072 8.22313
Si 37.3409 36.1315 8.21951
Si 35.0309 33.8486 8.21817
O 38.2515 35.9001 9.58538
O 36.4809 37.551 8.21881
O 38.2519 35.8996 6.85406
O 35.0687 33.0359 9.62172
O 33.6246 34.6283 8.10221
O 35.1716 32.9255 6.89049
O 30.161 40.3273 5.49014
Si 31.363 41.4522 5.48695
Si 29.3634 38.8931 5.48558
O 33.0106 38.0198 5.4911
Si 33.8611 39.4294 5.48757
Si 31.7736 36.9414 5.48627
O 34.7896 39.2837 6.85335
O 32.8727 40.7626 5.48705
O 34.7897 39.2835 4.12203
O 31.887 36.1358 6.88983
O 30.3008 37.5866 5.37036
O 31.9996 36.0356 4.15852
O 26.3218 42.9382 8.22167
Si 27.414 44.17 8.21848
Si 25.6611 41.436 8.21699
O 29.3738 40.906 8.22139
Si 30.0895 42.3886 8.21824
Si 28.2425 39.7172 8.21689
O 31.0275 42.33 9.58387
O 28.9812 43.624 8.21823
O 31.0274 42.3301 6.85259
O 28.4305 38.9255 9.62033
O 26.716 40.2225 8.10169
O 28.5516 38.8365 6.88898
O 22.2567 45.1806 5.49127
Si 23.2295 46.5088 5.48798
Si 21.7384 43.6236 5.48645
O 25.4843 43.4412 5.48985
Si 26.059 44.9839 5.4872
Si 24.4684 42.1523 5.48567
O 26.9983 45.0128 6.85286
O 24.8407 46.1109 5.48739
O 26.9983 45.0129 4.12157
O 24.7294 41.3815 6.88906
O 22.9015 42.5134 5.37077
O 24.858 41.3042 4.15774
O 18.0004 47.0353 8.22367
Si 18.8455 48.4481 8.21995
Si 17.6289 45.4368 8.21851
O 21.3757 45.6036 8.22211
Si 21.8046 47.193 8.21932
Si 20.4841 44.2259 8.21776
O 22.7371 47.3092 9.58505
O 20.4868 48.2019 8.21934
O 22.7373 47.3092 6.85379
O 20.8155 43.4828 9.62125
O 18.8904 44.4397 8.10272
O 20.9511 43.4176 6.88988
O 13.5899 48.4862 5.49362
Si 14.3003 49.9713 5.4895
Si 13.3684 46.8601 5.48831
O 17.0839 47.3744 5.49137
Si 17.3633 48.9968 5.48865
Si 16.3239 45.9199 5.48718
O 18.2808 49.1993 6.8544
O 15.9574 49.8787 5.48864
O 18.2811 49.1993 4.12314
O 16.7231 45.2109 6.89072
O 14.7172 45.9846 5.37234
O 16.8641 45.1585 4.15929
O 9.06384 49.5219 8.22389
Si 9.6337 51.0664 8.22041
Si 8.99389 47.8823 8.219
O 12.6458 48.7387 8.22381
Si 12.7736 50.38 8.22079
Si 12.024 47.22 8.2196
O 13.6682 50.6669 9.58663
O 11.2921 51.1279 8.22024
O 13.6689 50.6668 6.85545
O 12.4873 46.5512 9.62318
O 10.4181 47.1355 8.10456
O 12.6327 46.5121 6.89179
O 4.46154 50.1355 5.4932
Si 4.88619 51.726 5.48971
Si 4.5433 48.4964 5.48839
O 8.10013 49.6861 5.49192
Si 8.07591 51.3322 5.48909
Si 7.62162 48.1163 5.48768
O 8.94039 51.7005 6.85475
O 6.53181 51.9403 5.48907
O 8.94031 51.7006 4.12348
O 8.14584 47.493 6.89083
O 6.03027 47.8839 5.37389
O 8.29243 47.4678 4.15937
O -0.177504 50.322 8.22331
Si 0.0984315 51.945 8.2203
Si 0.0549234 48.6974 8.21879
O 3.48678 50.2102 8.22434
Si 3.31073 51.847 8.221
Si 3.15523 48.6029 8.21971
O 4.13711 52.2936 9.58686
O 1.71721 52.3101 8.22027
O 4.13773 52.2935 6.85561
O 3.73465 48.0305 9.62288
O 1.59214 48.2246 8.10571
O 3.88324 48.0191 6.89151
O -4.81429 50.0805 5.49206
Si -4.68908 51.722 5.48891
Si -4.43323 48.4843 5.48747
O -1.15535 50.3066 5.49223
Si -1.48142 51.9203 5.48898
Si -1.33728 48.6756 5.48751
O -0.699437 52.4411 6.85468
O -3.1108 52.2347 5.48865
O -0.699365 52.441 4.12343
O -0.706503 48.1589 6.89018
O -2.85897 48.1548 5.37497
O -0.559378 48.1613 4.15887
O -9.40943 49.4139 8.2222
Si -9.43573 51.06 8.21967
Si -8.88308 47.8595 8.21811
O -5.78672 49.9754 8.22349
Si -6.25992 51.5522 8.2202
Si -5.81771 48.3345 8.21879
O -5.52937 52.1426 9.58601
O -7.91128 51.7155 8.21971
O -5.52904 52.1427 6.85469
O -5.14167 47.8781 9.6213
O -7.28513 47.676 8.10654
O -4.99601 47.8939 6.89001
O -13.9238 48.3281 5.49101