3024
 Atoms. Timestep: 12443
O -9.08082 -61.4999 2.52692
Si -9.58487 -63.0671 2.52684
Si -9.06505 -59.8582 2.52669
O -12.6763 -60.8669 2.52619
Si -12.7383 -62.5119 2.52619
Si -12.1297 -59.3187 2.52646
O -13.6121 -62.8455 3.89074
O -11.2341 -63.2014 2.5264
O -13.6117 -62.8456 1.16144
O -12.7117 -58.6539 3.89058
O -10.5218 -59.159 2.52818
O -12.7095 -58.6543 1.16124
O -4.45991 -61.9995 -0.202886
Si -4.84557 -63.5999 -0.202875
Si -4.56672 -60.3612 -0.202954
O -8.09245 -61.636 -0.202496
Si -8.03161 -63.2811 -0.202467
Si -7.66302 -60.0513 -0.202628
O -8.87767 -63.679 1.16227
O -6.48024 -63.8567 -0.202853
O -8.87805 -63.679 3.89164
O -8.29294 -59.4318 1.16156
O -6.07148 -59.7723 -0.201298
O -8.29096 -59.4321 3.89079
O 18.4923 -59.3135 2.52503
Si 18.7179 -60.9442 2.52537
Si 17.7941 -57.8276 2.52553
O 14.978 -60.3029 2.52562
Si 15.6357 -61.812 2.52568
Si 14.7988 -58.6709 2.52556
O 14.9931 -62.4914 3.89035
O 17.2902 -61.7807 2.5255
O 14.9931 -62.4914 1.16104
O 13.9862 -58.3241 3.88963
O 16.1783 -57.8296 2.52699
O 13.9884 -58.3236 1.16033
O 22.8718 -57.7583 -0.204177
Si 23.2191 -59.3674 -0.203776
Si 22.0645 -56.3287 -0.204029
O 19.4417 -59.0074 -0.203892
Si 20.2104 -60.4631 -0.203939
Si 19.1407 -57.3934 -0.203779
O 19.6205 -61.1887 1.16069
O 21.8579 -60.3083 -0.204044
O 19.6204 -61.1887 3.8901
O 18.3047 -57.1084 1.16052
O 20.4533 -56.4512 -0.202988
O 18.3061 -57.108 3.8898
O 42.3843 -45.377 2.52538
Si 43.2941 -46.7489 2.52467
Si 41.1115 -44.3399 2.52502
O 39.6452 -47.7902 2.5243
Si 40.8918 -48.8654 2.52433
Si 38.7766 -46.397 2.52419
O 40.6075 -49.7559 3.88901
O 42.3695 -48.1211 2.5244
O 40.6075 -49.756 1.15968
O 37.8936 -46.4369 3.88818
O 39.6558 -45.0412 2.52592
O 37.8956 -46.4353 1.15893
O 56.059 -26.7476 -0.203123
Si 46.6695 -43.3808 -0.204231
Si 44.314 -41.1404 -0.20432
O 43.1081 -44.6901 -0.205248
Si 44.431 -45.6698 -0.204665
Si 42.1382 -43.3653 -0.204355
O 44.2134 -46.579 1.16001
O 45.8494 -44.8178 -0.204542
O 44.2135 -46.5792 3.88934
O 41.2612 -43.4703 1.16002
O 42.9143 -41.948 -0.203627
O 41.2619 -43.4695 3.88942
O 57.9082 -22.4835 2.5257
Si 59.322 -23.3268 2.52575
Si 56.3119 -22.0993 2.52559
O 56.4826 -25.8445 2.52549
Si 58.0716 -26.2746 2.52561
Si 55.0968 -24.964 2.5257
O 58.2003 -27.2005 3.89042
O 59.0818 -24.964 2.52537
O 58.2001 -27.2011 1.16113
O 54.3187 -25.3804 3.89046
O 55.303 -23.3614 2.52548
O 54.3184 -25.3808 1.16117
O 62.1588 0.231579 -0.202868
Si 60.9066 -18.8286 -0.203992
Si 60.5324 0.00683291 -0.202754
O 58.2632 -21.5512 -0.204027
Si 59.8799 -21.8615 -0.203576
Si 56.8155 -20.7767 -0.203724
O 60.0774 -22.7751 1.16129
O 60.7894 -20.4791 -0.203893
O 60.0773 -22.7757 3.89049
O 56.0705 -21.2503 1.1609
O 56.9014 -19.1632 -0.203502
O 56.0705 -21.2502 3.89025
O 61.9776 4.87598 2.52662
Si 63.6172 4.72861 2.52695
Si 60.3725 4.53037 2.52695
O 62.1492 1.22913 2.52637
Si 63.7677 1.53026 2.52633
Si 60.5188 1.42199 2.52655
O 64.2849 0.751394 3.89101
O 64.1102 3.14909 2.52641
O 64.2849 0.751349 1.16164
O 59.9979 0.709711 3.89141
O 60.0101 2.95571 2.526
O 59.9979 0.708826 1.16215
O 61.4505 9.49376 -0.203197
Si 63.0966 9.4693 -0.202914
Si 59.8758 9.02936 -0.202714
O 61.8935 5.86998 -0.201963
Si 63.485 6.29097 -0.202323
Si 60.2532 5.94059 -0.202312
O 64.059 5.553 1.16246
O 63.706 7.93087 -0.20274
O 64.0589 5.55245 3.89179
O 59.7869 5.19147 1.16256
O 59.6317 7.43209 -0.202857
O 59.7871 5.19043 3.89193
O 60.5791 14.059 2.52562
Si 62.2224 14.1578 2.52646
Si 59.0435 13.4781 2.5259
O 61.2926 10.4787 2.527
Si 62.8481 11.0176 2.52642
Si 59.6516 10.4266 2.52664
O 63.4757 10.3242 3.89105
O 62.9455 12.6694 2.5264
O 63.4755 10.3243 1.1617
O 59.2425 9.64429 3.89122
O 58.9199 11.8671 2.52695
O 59.2426 9.64447 1.16191
O 59.368 18.5462 -0.203675
Si 60.9993 18.7677 -0.203143
Si 57.8803 17.8519 -0.203081
O 60.3477 15.0293 -0.202628
Si 61.8585 15.6831 -0.202808
Si 58.7152 14.8544 -0.203365
O 62.5363 15.0388 1.16186
O 61.8319 17.3376 -0.202904
O 62.5362 15.0387 3.89114
O 58.366 14.0431 1.16088
O 57.8777 16.2361 -0.202316
O 58.3659 14.0445 3.89021
O 57.8241 22.93 2.52765
Si 59.4342 23.273 2.52725
Si 56.3925 22.1262 2.52729
O 59.0645 19.4963 2.52573
Si 60.5222 20.2614 2.52619
Si 57.4498 19.1997 2.52623
O 61.2463 19.6695 3.89076
O 60.3715 21.9093 2.52662
O 61.2462 19.6697 1.16147
O 57.1624 18.3647 3.89062
O 56.511 20.5148 2.52701
O 57.1621 18.3657 1.1613
O 55.956 27.1858 -0.202521
Si 57.5359 27.6484 -0.202175
Si 54.5887 26.2771 -0.201898
O 57.45 23.8548 -0.202232
Si 58.8463 24.7268 -0.202044
Si 55.862 23.438 -0.20204
O 59.6127 24.1912 1.1627
O 58.5727 26.3588 -0.202302
O 59.6129 24.1907 3.89208
O 55.6379 22.5844 1.16275
O 54.8274 24.679 -0.202202
O 55.638 22.584 3.89203
O 53.7756 31.2898 2.52628
Si 55.3163 31.8696 2.52673
Si 52.4799 30.2815 2.52654
O 55.5141 28.0801 2.5278
Si 56.8413 29.0541 2.52716
Si 53.9618 27.5455 2.52746
O 57.6455 28.5773 3.8919
O 56.4467 30.6611 2.52683
O 57.6455 28.5769 1.16257
O 53.802 26.6775 3.89214
O 52.8373 28.7057 2.52746
O 53.8022 26.6774 1.16281
O 51.2936 35.2192 -0.203571
Si 52.7867 35.9127 -0.203483
Si 50.0771 34.1166 -0.203677
O 53.268 32.1485 -0.202641
Si 54.5183 33.2193 -0.202604
Si 51.76 31.4994 -0.202759
O 55.356 32.8039 1.16211
O 54.0043 34.7922 -0.203026
O 55.3561 32.8037 3.89143
O 51.6658 30.6214 1.16161
O 50.5517 32.5722 -0.202036
O 51.6653 30.6223 3.89093
O 48.5245 38.9519 2.52587
Si 49.9615 39.7552 2.52603
Si 47.3941 37.7613 2.52598
O 50.7229 36.0376 2.52591
Si 51.8898 37.1989 2.52582
Si 49.2678 35.2772 2.52563
O 52.7564 36.8471 3.89034
O 51.2595 38.7289 2.52596
O 52.7561 36.8475 1.16104
O 49.2401 34.3941 3.88974
O 47.9828 36.2565 2.52687
O 49.2389 34.3959 1.16042
O 45.4835 42.4665 -0.204127
Si 46.8562 43.3752 -0.203965
Si 44.4457 41.1943 -0.203866
O 47.8948 39.7251 -0.203578
Si 48.971 40.9709 -0.203309
Si 46.5007 38.858 -0.203335
O 49.8612 40.6851 1.16149
O 48.2276 42.4493 -0.2037
O 49.8615 40.6849 3.89074
O 46.5385 37.9759 1.16105
O 45.1457 39.7382 -0.202568
O 46.5379 37.9766 3.89042
O 42.1866 45.7423 2.52524
Si 43.4872 46.7516 2.52503
Si 41.2474 44.3958 2.52478
O 44.7971 43.1902 2.52542
Si 45.7769 44.5131 2.52531
Si 43.4722 42.2207 2.52546
O 46.6863 44.2949 3.88997
O 44.9244 45.9314 2.52518
O 46.6862 44.2949 1.16063
O 43.5766 41.3435 3.88962
O 42.0549 42.9964 2.5269
O 43.5754 41.3449 1.16035
O 38.6532 48.761 -0.203991
Si 39.8742 49.8651 -0.20432
Si 37.8176 47.3478 -0.204379
O 41.448 46.412 -0.204674
Si 42.3255 47.8049 -0.204309
Si 40.1995 45.3459 -0.204546
O 43.2487 47.6558 1.16034
O 41.3689 49.1552 -0.204286
O 43.2487 47.6559 3.88963
O 40.37 44.4788 1.15932
O 38.728 46.013 -0.20201
O 40.3677 44.4808 3.88864
O 34.9025 51.5055 2.52634
Si 36.0374 52.6981 2.5254
Si 34.1752 50.0336 2.52524
O 37.8661 49.3735 2.52401
Si 38.6368 50.8282 2.52496
Si 36.7012 48.2166 2.52489
O 39.5686 50.7487 3.88955
O 37.5813 52.1027 2.52539
O 39.5686 50.749 1.16028
O 36.9367 47.3646 3.88862
O 35.1836 48.7711 2.52765
O 36.9338 47.3666 1.15936
O 30.9566 53.9615 -0.202103
Si 31.9991 55.2357 -0.203022
Si 30.3418 52.4392 -0.202588
O 34.0715 52.0571 -0.205101
Si 34.731 53.5654 -0.203949
Si 32.9965 50.8161 -0.204158
O 35.6662 53.5561 1.16057
O 33.5832 54.7573 -0.203322
O 35.6661 53.5566 3.88995
O 33.2953 49.9845 1.1598
O 31.4417 51.2556 -0.20163
O 33.2925 49.9859 3.889
O 26.8382 56.1153 2.52719
Si 27.7823 57.4639 2.52673
Si 26.3391 54.5512 2.527
O 30.087 54.4493 2.52564
Si 30.6315 56.0028 2.52626
Si 29.1079 53.1314 2.52666
O 31.5646 56.0637 3.89092
O 29.3977 57.1055 2.52643
O 31.5648 56.0639 1.16164
O 29.4673 52.3247 3.891
O 27.5245 53.4533 2.52763
O 29.4659 52.3252 1.16164
O 22.5707 57.9554 -0.203175
Si 23.4112 59.3708 -0.203025
Si 22.1895 56.3584 -0.20296
O 25.9347 56.5366 -0.202874
Si 26.3615 58.1265 -0.202604
Si 25.0567 55.1492 -0.202335
O 27.2871 58.2572 1.16219
O 25.0489 59.1341 -0.202872
O 27.2875 58.2571 3.89148
O 25.4752 54.3717 1.16211
O 23.4537 55.3521 -0.201422
O 25.4744 54.372 3.89145
O 18.1774 59.472 2.52547
Si 18.9101 60.9462 2.52575
Si 17.9166 57.851 2.52574
O 21.6378 58.3083 2.52599
Si 21.945 59.9257 2.52625
Si 20.866 56.8593 2.52635
O 22.8586 60.1249 3.89089
O 20.5609 60.8324 2.52609
O 22.8585 60.125 1.16159
O 21.342 56.1148 3.89042
O 19.2523 56.9418 2.52832
O 21.3399 56.1156 1.1611
O 13.6833 60.6573 -0.204088
Si 14.3041 62.182 -0.203855
Si 13.5444 59.0214 -0.204089
O 17.2209 59.7544 -0.20401
Si 17.4066 61.3901 -0.203579
Si 16.5594 58.2518 -0.203567
O 18.3029 61.6569 1.16099
O 15.9588 62.1913 -0.20343
O 18.3026 61.657 3.89033
O 17.0902 57.5447 1.16015
O 14.944 58.2141 -0.20061
O 17.0867 57.5457 3.88944
O -9.41134 61.4269 2.52645
Si -9.39238 63.073 2.52691
Si -8.94223 59.8535 2.5271
O -5.78965 61.8814 2.52804
Si -6.21522 63.4716 2.52772
Si -5.85509 60.2409 2.52778
O -5.47845 64.0478 3.89234
O -7.85588 63.6874 2.52762
O -5.47862 64.0476 1.16298
O -5.10318 59.7767 3.89179
O -7.34431 59.6143 2.52973
O -5.10557 59.7767 1.1625
O -13.9738 60.539 -0.201405
Si -14.0781 62.182 -0.201591
Si -13.3876 59.0055 -0.201823
O -10.3957 61.2656 -0.202235
Si -10.9399 62.8192 -0.202377
Si -10.3383 59.6248 -0.202182
O -10.2483 63.4492 1.16204
O -12.5922 62.9104 -0.201791
O -10.2491 63.4489 3.89132
O -9.5531 59.2186 1.16152
O -11.7762 58.8878 -0.199446
O -9.55663 59.2181 3.89088
O -35.1095 51.1937 2.5268
Si -35.805 52.6858 2.52686
Si -34.0052 49.9789 2.52703
O -32.0415 53.1719 2.52742
Si -33.1142 54.4207 2.52753
Si -31.3898 51.665 2.5277
O -32.7005 55.2589 3.89228
O -34.6863 53.9049 2.52736
O -32.7004 55.2589 1.16287
O -30.5115 51.5724 3.89207
O -32.4612 50.4554 2.52866
O -30.5124 51.5718 1.16278
O -51.3961 34.8001 -0.203764
Si -39.6433 49.8563 -0.203258
Si -37.6467 47.2909 -0.203078
O -35.9269 50.6223 -0.202072
Si -37.0897 51.7876 -0.202482
Si -35.165 49.168 -0.202275
O -36.7393 52.6546 1.1621
O -38.6189 51.1557 -0.202698
O -36.7395 52.6544 3.89143
O -34.2819 49.1414 1.16193
O -36.1428 47.8816 -0.20103
O -34.2834 49.1404 3.89124
O -53.8583 30.8587 2.52554
Si -55.131 31.9029 2.52575
Si -52.337 30.2411 2.52565
O -51.9492 33.9696 2.52496
Si -53.4564 34.6317 2.52521
Si -50.7095 32.8932 2.52544
O -53.4459 35.5667 3.8898
O -54.6503 33.4862 2.52534
O -53.4461 35.5666 1.16052
O -49.8776 33.1903 3.88973
O -51.1514 31.339 2.52647
O -49.8784 33.189 1.16044
O -61.4458 9.03155 -0.202985
Si -57.3675 27.6914 -0.20399
Si -54.4575 26.2425 -0.204242
O -54.3482 29.9899 -0.203524
Si -55.9007 30.5374 -0.203531
Si -53.032 29.0085 -0.203648
O -55.9601 31.4702 1.16128
O -57.006 29.3061 -0.203732
O -55.9598 31.4706 3.89049
O -52.2244 29.3662 1.16067
O -53.3571 27.4257 -0.202748
O -52.2251 29.3651 3.89
O -61.9584 4.41242 2.52756
Si -63.5577 4.80256 2.52717
Si -60.3198 4.51456 2.52739
O -61.5848 8.04382 2.52619
Si -63.23 7.98756 2.52648
Si -60.0013 7.60993 2.52644
O -63.6255 8.83486 3.89112
O -63.81 6.43788 2.52666
O -63.6255 8.8348 1.16179
O -59.3802 8.23612 3.89157
O -59.7268 6.01763 2.52494
O -59.38 8.23793 1.16225
O -62.1253 -0.232725 -0.202325
Si -63.7492 0.0374024 -0.20223
Si -60.499 -0.00794139 -0.202444
O -62.0233 3.41702 -0.201663
Si -63.6598 3.23809 -0.202118
Si -60.4119 3.1025 -0.201902
O -64.1174 4.05327 1.16266
O -64.1225 1.64942 -0.202395
O -64.1174 4.05385 3.89203
O -59.8393 3.77242 1.16364
O -60.0196 1.5351 -0.204074
O -59.8391 3.77577 3.89287
O -61.944 -4.87614 2.52611
Si -63.5836 -4.72851 2.52623
Si -60.3389 -4.53093 2.52639
O -62.1157 -1.22933 2.5274
Si -63.7342 -1.53017 2.52706
Si -60.4854 -1.42274 2.52689
O -64.2515 -0.751521 3.89188
O -64.0767 -3.14901 2.5264
O -64.2515 -0.750975 1.16257
O -59.9643 -0.711137 3.89197
O -59.9765 -2.95631 2.52546
O -59.9644 -0.709352 1.16269
O -61.4174 -9.4937 -0.202311
Si -63.0634 -9.46914 -0.202708
Si -59.8426 -9.02957 -0.202765
O -61.8603 -5.87008 -0.203409
Si -63.4518 -6.29085 -0.203079
Si -60.22 -5.94092 -0.202908
O -64.0256 -5.55244 1.16153
O -63.6729 -7.93074 -0.202848
O -64.0256 -5.55263 3.89081
O -59.7535 -5.19193 1.16193
O -59.5985 -7.43234 -0.203128
O -59.7535 -5.1911 3.89128
O -60.5457 -14.0589 2.52672
Si -62.189 -14.1575 2.52695
Si -59.0101 -13.4781 2.52697
O -61.2591 -10.4786 2.5263
Si -62.8147 -11.0173 2.52659
Si -59.6181 -10.4265 2.52653
O -63.4423 -10.324 3.89125
O -62.912 -12.6691 2.52672
O -63.4424 -10.324 1.16198
O -59.2093 -9.64449 3.89128
O -58.8864 -11.8671 2.5268
O -59.2092 -9.64432 1.16188
O -59.3355 -18.5462 -0.202754
Si -60.9667 -18.7675 -0.202657
Si -57.8476 -17.852 -0.203057
O -60.3145 -15.029 -0.20266
Si -61.8253 -15.6828 -0.202356
Si -58.682 -14.8544 -0.202331
O -62.5029 -15.0385 1.16235
O -61.7989 -17.3373 -0.202572
O -62.503 -15.0384 3.89161
O -58.3327 -14.0437 1.16228
O -57.8447 -16.2362 -0.202152
O -58.3326 -14.0438 3.89163
O -57.7934 -22.9302 2.52692
Si -59.4035 -23.2732 2.52622
Si -56.3617 -22.1267 2.52643
O -59.0326 -19.4963 2.52617
Si -60.4903 -20.2612 2.52662
Si -57.4178 -19.1999 2.52625
O -61.214 -19.6694 3.89141
O -60.3404 -21.9092 2.52644
O -61.2142 -19.6692 1.16203
O -57.1301 -18.3647 3.89043
O -56.4795 -20.5152 2.52767
O -57.1296 -18.3663 1.1612
O -55.9265 -27.1861 -0.202095
Si -57.5063 -27.649 -0.202655
Si -54.559 -26.2776 -0.202515
O -57.4201 -23.8552 -0.203694
Si -58.8164 -24.7272 -0.203149
Si -55.832 -23.4385 -0.202931
O -59.5825 -24.1909 1.16149
O -58.5431 -26.3592 -0.203079
O -59.5826 -24.1912 3.89076
O -55.6079 -22.5842 1.1613
O -54.7975 -24.6795 -0.201538
O -55.6071 -22.5855 3.8907
O -53.745 -31.2902 2.52612
Si -55.2858 -31.8699 2.52632
Si -52.4497 -30.2815 2.52599
O -55.4844 -28.0806 2.52611
Si -56.8114 -29.0547 2.52662
Si -53.9321 -27.5458 2.52675
O -57.6156 -28.5779 3.89145
O -56.4164 -30.6616 2.52639
O -57.6159 -28.5776 1.16208
O -53.7728 -26.6772 3.89103
O -52.8074 -28.7059 2.52801
O -53.7719 -26.6785 1.16171
O -51.2623 -35.2186 -0.203328
Si -52.7551 -35.9123 -0.203478
Si -50.046 -34.1157 -0.20356
O -53.2373 -32.1484 -0.20324
Si -54.4875 -33.2194 -0.203018
Si -51.7294 -31.499 -0.203316
O -55.3253 -32.8042 1.16168
O -53.9731 -34.7922 -0.203225
O -55.3254 -32.8041 3.89101
O -51.6359 -30.6203 1.16065
O -50.5209 -32.5714 -0.201117
O -51.6345 -30.6227 3.88994
O -48.4917 -38.9497 2.52639
Si -49.9283 -39.7536 2.52609
Si -47.3615 -37.7589 2.52613
O -50.6916 -36.0365 2.52529
Si -51.8579 -37.1983 2.5258
Si -49.2366 -35.2759 2.52572
O -52.7246 -36.8468 3.89038
O -51.2269 -38.7281 2.52602
O -52.7245 -36.8472 1.16102
O -49.2095 -34.3924 3.88949
O -47.951 -36.2546 2.52828
O -49.2074 -34.3952 1.16019
O -45.4482 -42.4631 -0.202648
Si -46.8208 -43.3719 -0.203001
Si -44.411 -41.1904 -0.203009
O -47.8609 -39.7226 -0.203672
Si -48.9368 -40.9686 -0.203239
Si -46.4671 -38.8551 -0.20321
O -49.8273 -40.6834 1.16146
O -48.1927 -42.4466 -0.203195
O -49.8275 -40.6833 3.89077
O -46.5062 -37.9723 1.16077
O -45.1117 -39.7346 -0.20095
O -46.5044 -37.9744 3.89004
O -42.1503 -45.7371 2.52489
Si -43.4507 -46.7466 2.52559
Si -41.2111 -44.3905 2.52556
O -44.7616 -43.1862 2.52617
Si -45.7413 -44.5091 2.52627
Si -43.4369 -42.2163 2.52627
O -46.6506 -44.2916 3.89104
O -44.8883 -45.9271 2.52594
O -46.6509 -44.2913 1.16178
O -43.5421 -41.339 3.89026
O -42.0192 -42.9914 2.52821
O -43.5401 -41.3409 1.1609
O -38.6163 -48.7552 -0.203311
Si -39.8375 -49.8592 -0.203283
Si -37.7805 -47.3422 -0.203268
O -41.4115 -46.4063 -0.204011
Si -42.2888 -47.7992 -0.203701
Si -40.1628 -45.3404 -0.203736
O -43.2122 -47.6505 1.16079
O -41.3322 -49.1494 -0.203277
O -43.2119 -47.6507 3.89017
O -40.3337 -44.4732 1.16008
O -38.6911 -46.0075 -0.201239
O -40.3312 -44.4755 3.8893
O -34.867 -51.5021 2.52674
Si -36.0025 -52.694 2.52662
Si -34.1392 -50.0304 2.52681
O -37.8291 -49.3678 2.5257
Si -38.6003 -50.8222 2.52605
Si -36.6638 -48.2113 2.52603
O -39.5321 -50.7428 3.89059
O -37.5459 -52.0974 2.52652
O -39.5319 -50.743 1.16131
O -36.899 -47.3594 3.89002
O -35.1466 -48.767 2.52817
O -36.8968 -47.3611 1.16065
O -30.9238 -53.9619 -0.203058
Si -31.9669 -55.2354 -0.202668
Si -30.3082 -52.4399 -0.20255
O -34.037 -52.0546 -0.202489
Si -34.6973 -53.5626 -0.202675
Si -32.9613 -50.8142 -0.202489
O -35.6323 -53.5527 1.16196
O -33.5506 -54.7556 -0.202672
O -35.6322 -53.5527 3.89125
O -33.2587 -49.9823 1.16165
O -31.407 -51.2553 -0.201012
O -33.2571 -49.9834 3.89102
O -26.8072 -56.1189 2.52523
Si -27.7517 -57.4671 2.52584
Si -26.3074 -54.555 2.52575
O -30.0547 -54.4506 2.52707
Si -30.6 -56.0039 2.52665
Si -29.075 -53.1331 2.52679
O -31.5332 -56.0641 3.89136
O -29.3669 -57.1075 2.52632
O -31.5332 -56.0639 1.16201
O -29.4338 -52.3258 3.89089
O -27.4919 -53.4562 2.52826
O -29.4322 -52.3269 1.16165
O -22.5403 -57.961 -0.203028
Si -23.3811 -59.3763 -0.203
Si -22.1592 -56.3641 -0.203164
O -25.9037 -56.541 -0.203846
Si -26.331 -58.1308 -0.20347
Si -25.0256 -55.1538 -0.203551
O -27.2571 -58.2608 1.16113
O -25.0187 -59.1389 -0.203209
O -27.2569 -58.2608 3.89037
O -25.4447 -54.3754 1.16021
O -23.4228 -55.3572 -0.200993
O -25.4416 -54.3769 3.88957
O -18.1469 -59.4761 2.52655
Si -18.8791 -60.9506 2.52636
Si -17.8864 -57.8552 2.52643
O -21.6078 -58.3139 2.52575
Si -21.9146 -59.9313 2.5263
Si -20.8361 -56.8648 2.52612
O -22.8282 -60.1305 3.891
O -20.53 -60.8375 2.52631
O -22.8284 -60.1305 1.16173
O -21.3123 -56.1203 3.89
O -19.2225 -56.9466 2.5283
O -21.3095 -56.1213 1.16071
O -13.6516 -60.6574 -0.202754
Si -14.2713 -62.1826 -0.203105
Si -13.5133 -59.0215 -0.202837
O -17.1898 -59.7578 -0.20289
Si -17.3747 -61.3936 -0.202942
Si -16.529 -58.2548 -0.202886
O -18.2709 -61.661 1.16167
O -15.9261 -62.1934 -0.20286
O -18.2709 -61.661 3.89106
O -17.0597 -57.5484 1.16122
O -14.9137 -58.2155 -0.20114
O -17.0575 -57.549 3.89045
O 9.11358 61.5035 2.52685
Si 9.61844 63.0704 2.5267
Si 9.097 59.8618 2.52675
O 12.7089 60.8676 2.5247
Si 12.7715 62.5126 2.52547
Si 12.1612 59.3198 2.52521
O 13.6457 62.8454 3.88985
O 11.2678 63.2033 2.52634
O 13.6449 62.8457 1.16056
O 12.7438 58.6542 3.88863
O 10.5532 59.1615 2.52901
O 12.7392 58.6551 1.15936
O 4.493 62.0059 -0.200678
Si 4.87915 63.6062 -0.20125
Si 4.59931 60.3676 -0.200777
O 8.12512 61.6407 -0.203338
Si 8.06513 63.2858 -0.202568
Si 7.6953 60.0561 -0.20259
O 8.91185 63.6828 1.16203
O 6.514 63.8622 -0.201926
O 8.9117 63.683 3.89131
O 8.32532 59.436 1.16124
O 6.10367 59.7779 -0.200198
O 8.32213 59.4363 3.89058
O -0.152059 62.1613 2.52843
Si 0.113177 63.786 2.52823
Si 0.0766709 60.5355 2.52868
O 3.49738 62.0687 2.52798
Si 3.31416 63.7047 2.52809
Si 3.18721 60.4565 2.52851
O 4.12837 64.1641 3.8929
O 1.72428 64.1635 2.52809
O 4.12876 64.1642 1.16347
O 3.86048 59.8853 3.89298
O 1.62088 60.06 2.5292
O 3.85984 59.8852 1.16374
O -4.79549 61.9683 -0.202299
Si -4.65295 63.6083 -0.201596
Si -4.44571 60.3641 -0.201577
O -1.14969 62.1495 -0.200482
Si -1.45486 63.7672 -0.201068
Si -1.33807 60.5186 -0.200605
O -0.677099 64.2863 1.16367
O -3.07466 64.1056 -0.201247
O -0.676977 64.2862 3.89287
O -0.623818 59.9993 1.16375
O -2.87026 60.0057 -0.199836
O -0.624698 59.9993 3.89318
O 0.18533 -62.1533 2.52714
Si -0.0798494 -63.7781 2.52699
Si -0.0434171 -60.5275 2.52725
O -3.46389 -62.0617 2.52615
Si -3.28071 -63.6977 2.52642
Si -3.15416 -60.4493 2.52634
O -4.0949 -64.1574 3.89109
O -1.69077 -64.1561 2.52644
O -4.09497 -64.1575 1.16181
O -3.82858 -59.8785 3.89048
O -1.58783 -60.0524 2.52795
O -3.82653 -59.8786 1.16115
O 4.82901 -61.9603 -0.203102
Si 4.68578 -63.6003 -0.202889
Si 4.47952 -60.3561 -0.203101
O 1.18278 -62.1411 -0.202143
Si 1.48782 -63.7588 -0.202317
Si 1.37165 -60.5102 -0.202057
O 0.710521 -64.2781 1.16249
O 3.10751 -64.0973 -0.202814
O 0.709983 -64.2781 3.89179
O 0.657207 -59.9911 1.16236
O 2.90396 -59.9976 -0.201427
O 0.658108 -59.9911 3.89168
O 9.44516 -61.4204 2.52567
Si 9.42505 -63.0665 2.52615
Si 8.97679 -59.8469 2.52626
O 5.82278 -61.8737 2.52653
Si 6.24779 -63.4641 2.52642
Si 5.88922 -60.2332 2.52621
O 5.51101 -64.04 3.89106
O 7.88835 -63.6804 2.52637
O 5.51095 -64.0399 1.16182
O 5.13751 -59.7689 3.89035
O 7.37885 -59.6073 2.52759
O 5.13953 -59.7688 1.16103
O 14.0082 -60.5368 -0.203819
Si 14.1113 -62.1798 -0.2036
Si 13.4233 -59.0028 -0.203741
O 10.4296 -61.2594 -0.203262
Si 10.9726 -62.8135 -0.203179
Si 10.3732 -59.6186 -0.203036
O 10.2811 -63.4431 1.16148
O 12.6247 -62.9066 -0.203422
O 10.281 -63.443 3.89082
O 9.58908 -59.2119 1.16121
O 11.8119 -58.8832 -0.201822
O 9.59078 -59.2117 3.89045
O -18.4559 59.3103 2.5276
Si -18.6832 60.9408 2.52773
Si -17.7568 57.8248 2.52799
O -14.9434 60.3037 2.52785
Si -15.6022 61.8123 2.52772
Si -14.7627 58.6718 2.52747
O -14.9603 62.4924 3.89241
O -17.2566 61.7791 2.52762
O -14.9602 62.4924 1.16315
O -13.9493 58.3261 3.89138
O -16.141 57.8286 2.52942
O -13.9523 58.3254 1.162
O -22.8342 57.7509 -0.201518
Si -23.1823 59.3599 -0.201678
Si -22.026 56.3218 -0.201716
O -19.4052 59.0026 -0.201686
Si -20.1748 60.4579 -0.20157
Si -19.103 57.3889 -0.201341
O -19.586 61.1842 1.16306
O -21.822 60.3019 -0.201608
O -19.5859 61.1842 3.89246
O -18.2669 57.1048 1.1631
O -20.4149 56.4456 -0.200652
O -18.2681 57.1045 3.89221
O -27.084 55.8705 2.52747
Si -27.5509 57.4492 2.52712
Si -26.172 54.5054 2.52754
O -23.7576 57.374 2.52722
Si -24.6336 58.7679 2.5276
Si -23.3363 55.7871 2.52755
O -24.1005 59.5359 3.89225
O -26.2646 58.4897 2.52755
O -24.1005 59.536 1.16301
O -22.4813 55.5661 3.89195
O -24.5745 54.7489 2.52822
O -22.4822 55.5656 1.16266
O -31.1834 53.6809 -0.201741
Si -31.7662 55.2205 -0.201767
Si -30.1725 52.3871 -0.201608
O -27.9775 55.4262 -0.202127
Si -28.9544 56.7513 -0.202214
Si -27.4394 53.8751 -0.201779
O -28.4793 57.5568 1.16224
O -30.5604 56.3533 -0.201866
O -28.48 57.5565 3.89155
O -26.5703 53.7179 1.16265
O -28.5975 52.748 -0.201011
O -26.5711 53.7174 3.89194
O 27.1231 -55.8793 2.52406
Si 27.5895 -57.4581 2.5245
Si 26.2109 -54.5143 2.5245
O 23.7957 -57.382 2.52582
Si 24.6713 -58.776 2.52553
Si 23.375 -55.795 2.5253
O 24.1377 -59.5437 3.89035
O 26.3026 -58.4982 2.5249
O 24.1372 -59.5438 1.16102
O 22.5202 -55.5732 3.88967
O 24.6135 -54.7573 2.52603
O 22.5212 -55.5729 1.16037
O 31.2215 -53.6881 -0.204939
Si 31.8045 -55.2276 -0.204743
Si 30.2101 -52.3948 -0.205025
O 28.016 -55.4352 -0.204638
Si 28.9933 -56.76 -0.204814
Si 27.4779 -53.8841 -0.204789
O 28.5183 -57.5655 1.15979
O 30.5991 -56.3612 -0.204823
O 28.5185 -57.5654 3.88907
O 26.6084 -53.727 1.15933
O 28.6353 -52.7566 -0.203438
O 26.6103 -53.7262 3.88865
O 35.1448 -51.1971 2.52446
Si 35.8412 -52.6888 2.52457
Si 34.0401 -49.9826 2.52446
O 32.0787 -53.1781 2.52437
Si 33.152 -54.4264 2.52455
Si 31.4264 -51.6714 2.52429
O 32.7388 -55.2651 3.88922
O 34.7236 -53.909 2.52427
O 32.7386 -55.2652 1.16003
O 30.5477 -51.58 3.88846
O 32.4966 -50.4607 2.52599
O 30.5495 -51.5789 1.15902
O 38.8727 -48.4213 -0.204924
Si 39.6781 -49.8571 -0.204979
Si 37.6805 -47.2925 -0.205111
O 35.9624 -50.6246 -0.204553
Si 37.1254 -51.7896 -0.204722
Si 35.1995 -49.1707 -0.204829
O 36.7758 -52.6566 1.16004
O 38.6543 -51.1569 -0.205031
O 36.7755 -52.6568 3.88937
O 34.3162 -49.145 1.15928
O 36.1768 -47.8839 -0.203126
O 34.3181 -49.1437 3.88852
O -38.8384 48.4203 -0.203435
O -42.3505 45.3759 2.5252
Si -43.2599 46.7481 2.52569
Si -41.0778 44.3386 2.52559
O -39.6112 47.7892 2.5258
Si -40.8575 48.8648 2.52601
Si -38.743 46.3958 2.52621
O -40.5727 49.7555 3.89056
O -42.3352 48.1203 2.52602
O -40.573 49.7553 1.16127
O -37.86 46.4354 3.89019
O -39.6221 45.04 2.5278
O -37.862 46.4338 1.16092
O -45.6256 42.0787 -0.204401
Si -46.6348 43.3793 -0.204298
Si -44.2793 41.139 -0.204367
O -43.0739 44.6889 -0.204211
Si -44.3967 45.6688 -0.20366
Si -42.1041 43.3641 -0.203732
O -44.1793 46.578 1.16106
O -45.8149 44.8165 -0.203873
O -44.1792 46.5782 3.89035
O -41.2267 43.4695 1.16032
O -42.8798 41.9466 -0.201913
O -41.2286 43.4677 3.88954
O -48.6464 38.5472 2.52516
Si -49.7497 39.7689 2.52508
Si -47.2338 37.7103 2.52529
O -46.2959 41.3401 2.52434
Si -47.6882 42.2185 2.52497
Si -45.2303 40.0911 2.5249
O -47.5388 43.1415 3.88954
O -49.0391 41.2631 2.52512
O -47.5392 43.1413 1.16017
O -44.363 40.2615 3.88881
O -45.8984 38.6199 2.52697
O -44.3649 40.2592 1.15951
Si -52.5872 35.9364 -0.204093
Si -49.9249 34.0711 -0.203829
O -49.2596 37.7607 -0.204065
Si -50.7136 38.5327 -0.204227
Si -48.104 36.5945 -0.204022
O -50.6336 39.4643 1.16037
O -51.9895 37.4793 -0.204143
O -50.6337 39.4642 3.8897
O -47.2521 36.8286 1.16014
O -48.6609 35.0777 -0.202572
O -47.2534 36.827 3.88941
O 45.6602 -42.0803 -0.203778
O 48.6821 -38.5488 2.52485
Si 49.7852 -39.7708 2.52448
Si 47.2697 -37.7119 2.52448
O 46.3307 -41.3413 2.52447
Si 47.7229 -42.2199 2.52504
Si 45.2653 -40.0922 2.52494
O 47.5737 -43.1427 3.88982
O 49.074 -41.2648 2.52481
O 47.5736 -43.1431 1.16053
O 44.3986 -40.262 3.88939
O 45.9339 -38.6211 2.52568
O 44.3992 -40.2611 1.15999
O 51.4327 -34.8025 -0.205278
Si 52.6238 -35.9389 -0.205182
Si 49.9618 -34.0731 -0.205268
O 49.2958 -37.7625 -0.205786
Si 50.7496 -38.5349 -0.204916
Si 48.1404 -36.5961 -0.204896
O 50.6691 -39.4665 1.15973
O 52.0258 -37.4817 -0.204912
O 50.6694 -39.4665 3.88902
O 47.2887 -36.8298 1.1595
O 48.6976 -35.0794 -0.203981
O 47.2892 -36.8288 3.88881
O 53.8965 -30.8616 2.52512
Si 55.169 -31.9059 2.52427
Si 52.3753 -30.244 2.52448
O 51.9862 -33.9725 2.5235
Si 53.4935 -34.6344 2.5241
Si 50.7469 -32.8957 2.52401
O 53.4827 -35.5694 3.88872
O 54.6878 -33.4891 2.52431
O 53.4829 -35.5693 1.15935
O 49.9148 -33.1924 3.8882
O 51.1895 -31.3417 2.52514
O 49.9157 -33.1909 1.15893
Si 57.4059 -27.6941 -0.203708
Si 54.4959 -26.2453 -0.203595
O 54.3864 -29.9927 -0.206074
Si 55.9389 -30.5402 -0.205067
Si 53.0702 -29.0113 -0.204903
O 55.9978 -31.4734 1.1595
O 57.0442 -29.3088 -0.204466
O 55.9983 -31.4732 3.88875
O 52.2628 -29.369 1.15953
O 53.3955 -27.4285 -0.20399
O 52.263 -29.3681 3.88889
O -56.0204 26.7452 -0.204328
O -57.8699 22.4811 2.52506
Si -59.2836 23.3245 2.52554
Si -56.2737 22.0967 2.52565
O -56.4441 25.8418 2.52508
Si -58.0331 26.272 2.52532
Si -55.0584 24.9613 2.52506
O -58.1618 27.1982 3.88994
O -59.0434 24.9617 2.52559
O -58.1618 27.198 1.1606
O -54.2797 25.3785 3.8893
O -55.2646 23.3586 2.52629
O -54.2805 25.377 1.15996
O -59.3958 18.0912 -0.203895
Si -60.8685 18.8269 -0.203994
Si -57.7754 17.827 -0.203934
O -58.225 21.5487 -0.203472
Si -59.8416 21.8595 -0.203746
Si -56.7773 20.7742 -0.203633
O -60.039 22.7735 1.16089
O -60.7513 20.4774 -0.203857
O -60.0389 22.7735 3.89023
O -56.0321 21.2479 1.16082
O -56.8632 19.1607 -0.203329
O -56.0325 21.2473 3.89014
O -60.5899 13.5997 2.52603
Si -62.1133 14.2235 2.52639
Si -58.9543 13.457 2.52623
O -59.6802 17.1354 2.52581
Si -61.3156 17.3244 2.52535
Si -58.179 16.4706 2.52539
O -61.5806 18.2212 3.88988
O -62.1195 15.8782 2.52578
O -61.5807 18.2208 1.16056
O -57.4712 16.9986 3.88984
O -58.1444 14.8552 2.52579
O -57.4715 16.9979 1.16055
Si -63.0115 9.54001 -0.202852
Si -59.8041 9.01125 -0.202859
O -60.8021 12.6252 -0.202802
Si -62.447 12.6917 -0.202867
Si -59.2555 12.0742 -0.203076
O -62.7783 13.5659 1.16192
O -63.1409 11.1896 -0.203101
O -62.7781 13.5664 3.89124
O -58.5893 12.6526 1.16193
O -59.1006 10.4659 -0.204248
O -58.5891 12.6538 3.89116
O 59.4338 -18.0932 -0.203901
Si 57.8133 -17.8293 -0.204083
O 60.6271 -13.6015 2.52517
Si 62.1508 -14.2247 2.52484
Si 58.9915 -13.4591 2.52479
O 59.7183 -17.137 2.52483
Si 61.3536 -17.3258 2.52528
Si 58.2168 -16.4729 2.52521
O 61.6186 -18.2225 3.88997
O 62.1574 -15.8794 2.52523
O 61.6187 -18.2224 1.16059
O 57.5091 -17.0013 3.88955
O 58.1818 -14.8574 2.5263
O 57.5093 -17.0001 1.16028
O 61.4821 -9.03276 -0.203643
Si 63.048 -9.54081 -0.203842
Si 59.8404 -9.01315 -0.204055
O 60.8392 -12.6266 -0.204377
Si 62.4841 -12.6927 -0.204482
Si 59.2924 -12.0763 -0.204517
O 62.8154 -13.5673 1.16006
O 63.1777 -11.1904 -0.204034
O 62.8155 -13.5669 3.88936
O 58.626 -12.6566 1.15956
O 59.1372 -10.4679 -0.202757
O 58.6264 -12.6545 3.88892
O 61.993 -4.41328 2.52613
Si 63.5925 -4.80287 2.52607
Si 60.3544 -4.51605 2.52599
O 61.6208 -8.04503 2.52476
Si 63.266 -7.98818 2.52546
Si 60.0372 -7.61161 2.52521
O 63.6617 -8.83537 3.89011
O 63.8453 -6.43816 2.52563
O 63.6618 -8.83544 1.16084
O 59.4162 -8.23982 3.88947
O 59.762 -6.01936 2.5264
O 59.4163 -8.23812 1.16012
Si 63.7829 -0.0375139 -0.203007
O 62.0579 -3.4176 -0.203331
Si 63.6944 -3.23819 -0.203214
Si 60.4464 -3.10375 -0.203333
O 64.152 -4.05332 1.1616
O 64.1568 -1.64941 -0.203296
O 64.152 -4.0538 3.89083
O 59.8738 -3.77579 1.16124
O 60.0535 -1.53641 -0.203345
O 59.8738 -3.77547 3.89056
O -9.08082 -61.4999 7.98554
Si -9.58487 -63.0671 7.98546
Si -9.06505 -59.8582 7.98531
O -12.6763 -60.8669 7.98481
Si -12.7383 -62.5119 7.9848
Si -12.1297 -59.3187 7.98507
O -13.6121 -62.8455 9.34936
O -11.2341 -63.2014 7.98501
O -13.6117 -62.8456 6.62006
O -12.7117 -58.6539 9.3492
O -10.5218 -59.159 7.98679
O -12.7095 -58.6543 6.61985
O -4.45991 -61.9995 5.25573
Si -4.84557 -63.5999 5.25574
Si -4.56672 -60.3612 5.25566
O -8.09245 -61.636 5.25612
Si -8.03161 -63.2811 5.25615
Si -7.66302 -60.0513 5.25599
O -8.87767 -63.679 6.62088
O -6.48024 -63.8567 5.25576
O -8.87805 -63.679 9.35026
O -8.29294 -59.4318 6.62018
O -6.07148 -59.7723 5.25732
O -8.29096 -59.4321 9.34941
O 18.4923 -59.3135 7.98365
Si 18.7179 -60.9442 7.98399
Si 17.7941 -57.8276 7.98415
O 14.978 -60.3029 7.98424
Si 15.6357 -61.812 7.9843
Si 14.7988 -58.6709 7.98418
O 14.9931 -62.4914 9.34897
O 17.2902 -61.7807 7.98412
O 14.9931 -62.4914 6.61966
O 13.9862 -58.3241 9.34825
O 16.1783 -57.8296 7.9856
O 13.9884 -58.3236 6.61895
O 22.8718 -57.7583 5.25444
Si 23.2191 -59.3674 5.25484
Si 22.0645 -56.3287 5.25459
O 19.4417 -59.0074 5.25472
Si 20.2104 -60.4631 5.25468
Si 19.1407 -57.3934 5.25484
O 19.6205 -61.1887 6.61931
O 21.8579 -60.3083 5.25457
O 19.6204 -61.1887 9.34872
O 18.3047 -57.1084 6.61914
O 20.4533 -56.4512 5.25563
O 18.3061 -57.108 9.34842
O 42.3843 -45.377 7.984
Si 43.2941 -46.7489 7.98328
Si 41.1115 -44.3399 7.98363
O 39.6452 -47.7902 7.98291
Si 40.8918 -48.8654 7.98295
Si 38.7766 -46.397 7.9828
O 40.6075 -49.7559 9.34763
O 42.3695 -48.1211 7.98301
O 40.6075 -49.756 6.6183
O 37.8936 -46.4369 9.3468
O 39.6558 -45.0412 7.98454
O 37.8956 -46.4353 6.61754
O 56.059 -26.7476 5.25549
Si 46.6695 -43.3808 5.25439
Si 44.314 -41.1404 5.2543
O 43.1081 -44.6901 5.25337
Si 44.431 -45.6698 5.25395
Si 42.1382 -43.3653 5.25426
O 44.2134 -46.579 6.61863
O 45.8494 -44.8178 5.25407
O 44.2135 -46.5792 9.34795
O 41.2612 -43.4703 6.61864
O 42.9143 -41.948 5.25499
O 41.2619 -43.4695 9.34803
O 57.9082 -22.4835 7.98431
Si 59.322 -23.3268 7.98436