2520
 Atoms. Timestep: 36186
O 5.11085 2.79182 14.82
Si 6.92349 2.76039 11.719
Si 3.74284 2.26768 14.1426
O 7.48524 1.17841 11.698
O 3.96903 1.17053 12.7578
O 2.60396 5.46768 8.9774
Si 3.99707 6.28657 8.69414
Si 1.99774 4.24648 9.89697
O 5.30896 2.84349 11.4352
Si 6.28193 3.93096 8.79753
Si 3.81203 2.15954 11.2026
O 7.09233 3.5905 10.2425
O 5.43203 5.39564 8.74257
O 7.04269 3.53835 130.919
O 3.31706 3.05484 12.6498
O 3.52326 3.53709 10.2434
O 3.93978 0.886982 10.1676
O 2.1915 5.05328 11.4766
Si 2.67096 6.67497 11.6392
Si 1.76887 3.95119 12.7777
O 3.57092 6.87281 13.0526
O 3.55336 6.94618 10.2145
O 2.35527 3.40688 14.3636
O 1.9019 2.94659 11.2471
O -1.07575 5.72314 14.82
Si -0.485715 7.43735 11.719
Si -1 4.26012 14.1426
O 1.19243 7.48274 11.698
O 0.11335 4.13619 12.7578
O -4.39532 4.16583 8.9774
Si -4.74363 5.74381 8.69414
Si -3.42122 3.21191 9.89697
O -1.06367 5.92752 11.4352
Si -1.79726 7.18892 8.79753
Si -0.875772 4.29251 11.2026
O -1.22302 7.85445 10.2425
O -3.45288 6.83322 8.74257
O -1.18877 7.79112 130.919
O -1.88021 4.09843 12.6498
O -2.27514 4.44356 10.2434
O 0.373978 4.02076 10.1676
O -4.12865 3.64551 11.4766
Si -5.52281 4.60263 11.6392
Si -3.21111 2.903 12.7777
O -5.43286 5.51968 13.0526
O -5.50807 5.52565 10.2145
O -2.51223 3.29249 14.3636
O -2.21457 2.71907 11.2471
O -5.77535 0.745157 14.82
Si -7.22334 1.83604 11.719
Si -4.36053 0.365101 14.1426
O -6.74794 3.44607 11.698
O -3.89863 1.38567 12.7578
O -5.32006 -2.89317 8.97739
Si -6.92844 -2.73682 8.69414
Si -4.11181 -2.26152 9.89697
O -5.96599 0.8198 11.4352
Si -7.39235 0.511917 8.79753
Si -4.35294 0.493261 11.2026
O -7.84786 1.2637 10.2425
O -7.56568 -1.17259 8.74257
O -7.77704 1.27671 130.919
O -4.47875 -0.521992 12.6498
O -4.92903 -0.790939 10.2434
O -3.70831 1.59787 10.1676
O -4.7428 -2.80034 11.4766
Si -6.0839 -3.8305 11.6392
Si -3.75309 -2.15715 12.7777
O -6.92826 -3.46157 13.0526
O -6.95718 -3.53126 10.2145
O -3.90756 -1.37212 14.3636
O -3.27022 -1.26622 11.2471
O -2.49327 -5.26272 14.82
Si -3.97821 -6.30273 11.719
Si -1.69461 -4.03458 14.1426
O -5.36253 -5.35307 11.698
O -2.52249 -3.27991 12.7578
O 1.10768 -5.95403 8.9774
Si 0.46196 -7.43537 8.69414
Si 0.880316 -4.60972 9.89697
O -2.62317 -5.42096 11.4352
Si -2.77112 -6.87265 8.79753
Si -1.81415 -3.98777 11.2026
O -3.62687 -7.07355 10.2425
O -1.22262 -7.55804 8.74256
O -3.61736 -7.00218 130.919
O -0.887466 -4.42115 12.6498
O -0.770828 -4.9325 10.2434
O -2.66549 -3.03333 10.1676
O 1.19778 -5.37633 11.4766
Si 1.7631 -6.97013 11.6392
Si 0.891906 -4.23631 12.7777
O 1.1513 -7.65916 13.0526
O 1.20864 -7.7082 10.2145
O 0.0975616 -4.14063 14.3636
O 0.193799 -3.50176 11.2471
O 4.23477 -3.99781 14.82
Si 4.76502 -5.73145 11.719
Si 3.31355 -2.85873 14.1426
O 3.43405 -6.75456 11.698
O 2.33999 -3.41288 12.7578
O 6.00499 -0.786728 8.9774
Si 7.2143 -1.8586 8.69414
Si 4.65623 -0.58755 9.89697
O 4.34513 -4.17025 11.4352
Si 5.68005 -4.75956 8.79753
Si 3.23208 -2.95795 11.2026
O 5.60667 -5.63551 10.2425
O 6.8104 -3.49864 8.74257
O 5.54174 -5.60441 130.919
O 3.93061 -2.21054 12.6498
O 4.45298 -2.25763 10.2434
O 2.06129 -3.47269 10.1676
O 5.48342 -0.522521 11.4766
Si 7.1739 -0.477382 11.6392
Si 4.30467 -0.461137 12.7777
O 7.64015 -1.27216 13.0526
O 7.70451 -1.23278 10.2145
O 3.9682 -1.18704 14.3636
O 3.39034 -0.898092 11.2471
O 5.11085 2.79182 20.705
Si 6.92349 2.76039 17.604
Si 3.74284 2.26768 20.0275
O 7.48524 1.17841 17.583
O 3.96903 1.17053 18.6428
O 2.60396 5.46768 14.8624
Si 3.99707 6.28657 14.5791
Si 1.99774 4.24648 15.7819
O 5.30896 2.84349 17.3202
Si 6.28193 3.93096 14.6825
Si 3.81203 2.15954 17.0876
O 7.09233 3.5905 16.1275
O 5.43203 5.39564 14.6275
O 7.04269 3.53835 13.2197
O 3.31706 3.05484 18.5348
O 3.52326 3.53709 16.1284
O 3.93978 0.886981 16.0526
O 2.19151 5.05328 17.3616
Si 2.67096 6.67497 17.5242
Si 1.76887 3.95119 18.6627
O 3.57092 6.87281 18.9376
O 3.55336 6.94618 16.0995
O 2.35527 3.40688 20.2486
O 1.9019 2.94659 17.132
O -1.07575 5.72314 20.705
Si -0.485715 7.43735 17.604
Si -1 4.26012 20.0275
O 1.19243 7.48274 17.583
O 0.11335 4.13619 18.6428
O -4.39532 4.16583 14.8624
Si -4.74363 5.74381 14.5791
Si -3.42122 3.21191 15.7819
O -1.06367 5.92752 17.3202
Si -1.79725 7.18892 14.6825
Si -0.875772 4.29251 17.0876
O -1.22302 7.85445 16.1275
O -3.45288 6.83322 14.6275
O -1.18877 7.79112 13.2197
O -1.88021 4.09843 18.5348
O -2.27514 4.44356 16.1284
O 0.373978 4.02076 16.0526
O -4.12865 3.64551 17.3616
Si -5.52281 4.60263 17.5242
Si -3.21111 2.903 18.6627
O -5.43286 5.51968 18.9376
O -5.50807 5.52565 16.0995
O -2.51223 3.29249 20.2486
O -2.21457 2.71907 17.132
O -5.77535 0.745157 20.705
Si -7.22334 1.83604 17.604
Si -4.36053 0.365101 20.0275
O -6.74794 3.44607 17.583
O -3.89863 1.38567 18.6428
O -5.32006 -2.89317 14.8624
Si -6.92844 -2.73682 14.5791
Si -4.11181 -2.26152 15.7819
O -5.96599 0.8198 17.3202
Si -7.39235 0.511917 14.6825
Si -4.35294 0.493261 17.0876
O -7.84786 1.2637 16.1275
O -7.56568 -1.17259 14.6275
O -7.77704 1.27671 13.2197
O -4.47875 -0.521992 18.5348
O -4.92903 -0.790939 16.1284
O -3.70831 1.59787 16.0526
O -4.7428 -2.80034 17.3616
Si -6.0839 -3.8305 17.5242
Si -3.75309 -2.15715 18.6627
O -6.92826 -3.46157 18.9376
O -6.95718 -3.53126 16.0995
O -3.90756 -1.37212 20.2486
O -3.27022 -1.26622 17.132
O -2.49327 -5.26272 20.705
Si -3.97821 -6.30273 17.604
Si -1.69461 -4.03458 20.0275
O -5.36253 -5.35307 17.5829
O -2.52249 -3.27992 18.6428
O 1.10768 -5.95403 14.8624
Si 0.46196 -7.43537 14.5791
Si 0.880316 -4.60973 15.7819
O -2.62317 -5.42096 17.3202
Si -2.77112 -6.87265 14.6825
Si -1.81415 -3.98777 17.0876
O -3.62687 -7.07355 16.1275
O -1.22262 -7.55804 14.6275
O -3.61736 -7.00218 13.2197
O -0.887466 -4.42115 18.5348
O -0.770828 -4.9325 16.1284
O -2.66549 -3.03333 16.0526
O 1.19778 -5.37633 17.3616
Si 1.7631 -6.97013 17.5242
Si 0.891906 -4.23631 18.6627
O 1.1513 -7.65916 18.9376
O 1.20864 -7.7082 16.0995
O 0.0975614 -4.14063 20.2486
O 0.193799 -3.50176 17.132
O 4.23477 -3.99781 20.705
Si 4.76502 -5.73145 17.604
Si 3.31355 -2.85873 20.0275
O 3.43405 -6.75456 17.583
O 2.33999 -3.41288 18.6428
O 6.00499 -0.786729 14.8624
Si 7.2143 -1.8586 14.5791
Si 4.65623 -0.58755 15.7819
O 4.34513 -4.17025 17.3202
Si 5.68005 -4.75956 14.6825
Si 3.23208 -2.95795 17.0876
O 5.60667 -5.63551 16.1275
O 6.8104 -3.49864 14.6275
O 5.54174 -5.60441 13.2197
O 3.93061 -2.21054 18.5348
O 4.45298 -2.25763 16.1284
O 2.06129 -3.47269 16.0526
O 5.48342 -0.522521 17.3616
Si 7.1739 -0.477382 17.5242
Si 4.30467 -0.461138 18.6627
O 7.64015 -1.27216 18.9376
O 7.70451 -1.23278 16.0995
O 3.9682 -1.18704 20.2486
O 3.39034 -0.898093 17.132
O 5.11085 2.79182 26.59
Si 6.92349 2.76038 23.489
Si 3.74284 2.26768 25.9125
O 7.48524 1.17841 23.4679
O 3.96903 1.17053 24.5278
O 2.60396 5.46768 20.7473
Si 3.99707 6.28657 20.4641
Si 1.99774 4.24648 21.6669
O 5.30896 2.84349 23.2051
Si 6.28193 3.93096 20.5675
Si 3.81203 2.15954 22.9726
O 7.09233 3.5905 22.0125
O 5.43203 5.39564 20.5125
O 7.04269 3.53835 19.1047
O 3.31706 3.05484 24.4197
O 3.52326 3.53709 22.0133
O 3.93978 0.886981 21.9376
O 2.19151 5.05328 23.2466
Si 2.67096 6.67497 23.4092
Si 1.76887 3.95119 24.5477
O 3.57092 6.87281 24.8225
O 3.55336 6.94618 21.9845
O 2.35527 3.40688 26.1336
O 1.9019 2.94659 23.017
O -1.07575 5.72314 26.59
Si -0.485715 7.43735 23.489
Si -1 4.26012 25.9125
O 1.19243 7.48274 23.4679
O 0.11335 4.13619 24.5278
O -4.39532 4.16583 20.7473
Si -4.74363 5.74381 20.4641
Si -3.42122 3.21191 21.6669
O -1.06367 5.92751 23.2051
Si -1.79725 7.18892 20.5675
Si -0.875772 4.29251 22.9726
O -1.22302 7.85445 22.0125
O -3.45288 6.83322 20.5125
O -1.18877 7.79112 19.1047
O -1.88021 4.09843 24.4197
O -2.27514 4.44356 22.0133
O 0.373978 4.02076 21.9376
O -4.12865 3.64551 23.2466
Si -5.52281 4.60263 23.4092
Si -3.21111 2.903 24.5477
O -5.43286 5.51968 24.8225
O -5.50807 5.52565 21.9845
O -2.51223 3.29249 26.1336
O -2.21457 2.71907 23.017
O -5.77535 0.745157 26.59
Si -7.22334 1.83604 23.489
Si -4.36053 0.365101 25.9125
O -6.74794 3.44607 23.4679
O -3.89863 1.38567 24.5278
O -5.32006 -2.89317 20.7473
Si -6.92844 -2.73682 20.4641
Si -4.11181 -2.26152 21.6669
O -5.96599 0.8198 23.2051
Si -7.39235 0.511917 20.5675
Si -4.35294 0.49326 22.9726
O -7.84786 1.2637 22.0125
O -7.56568 -1.17259 20.5125
O -7.77704 1.27671 19.1047
O -4.47875 -0.521992 24.4197
O -4.92903 -0.79094 22.0133
O -3.70831 1.59787 21.9376
O -4.7428 -2.80034 23.2466
Si -6.0839 -3.8305 23.4092
Si -3.75309 -2.15715 24.5477
O -6.92826 -3.46157 24.8225
O -6.95718 -3.53126 21.9845
O -3.90756 -1.37212 26.1336
O -3.27022 -1.26622 23.017
O -2.49327 -5.26272 26.59
Si -3.97821 -6.30273 23.489
Si -1.69461 -4.03458 25.9125
O -5.36253 -5.35307 23.4679
O -2.52249 -3.27992 24.5278
O 1.10768 -5.95403 20.7473
Si 0.461959 -7.43537 20.4641
Si 0.880316 -4.60973 21.6669
O -2.62317 -5.42096 23.2051
Si -2.77112 -6.87265 20.5675
Si -1.81415 -3.98777 22.9726
O -3.62687 -7.07355 22.0125
O -1.22262 -7.55804 20.5125
O -3.61736 -7.00218 19.1047
O -0.887466 -4.42115 24.4197
O -0.770828 -4.9325 22.0133
O -2.66549 -3.03333 21.9376
O 1.19778 -5.37633 23.2466
Si 1.7631 -6.97013 23.4092
Si 0.891905 -4.23631 24.5477
O 1.1513 -7.65916 24.8225
O 1.20864 -7.7082 21.9845
O 0.0975612 -4.14063 26.1336
O 0.193799 -3.50176 23.017
O 4.23477 -3.99781 26.59
Si 4.76502 -5.73145 23.489
Si 3.31355 -2.85873 25.9125
O 3.43405 -6.75456 23.4679
O 2.33999 -3.41288 24.5278
O 6.00499 -0.786729 20.7473
Si 7.2143 -1.8586 20.4641
Si 4.65623 -0.58755 21.6669
O 4.34513 -4.17025 23.2052
Si 5.68005 -4.75956 20.5675
Si 3.23208 -2.95795 22.9726
O 5.60667 -5.63551 22.0125
O 6.8104 -3.49864 20.5125
O 5.54174 -5.60441 19.1047
O 3.93061 -2.21054 24.4197
O 4.45298 -2.25763 22.0133
O 2.06129 -3.47269 21.9376
O 5.48341 -0.522522 23.2466
Si 7.1739 -0.477383 23.4092
Si 4.30467 -0.461138 24.5477
O 7.64015 -1.27216 24.8225
O 7.70451 -1.23278 21.9845
O 3.9682 -1.18704 26.1336
O 3.39034 -0.898093 23.017
O 5.11085 2.79182 32.4749
Si 6.92349 2.76038 29.374
Si 3.74284 2.26768 31.7975
O 7.48524 1.1784 29.3529
O 3.96903 1.17053 30.4127
O 2.60396 5.46768 26.6323
Si 3.99707 6.28657 26.3491
Si 1.99774 4.24648 27.5519
O 5.30896 2.84349 29.0901
Si 6.28193 3.93096 26.4525
Si 3.81203 2.15954 28.8576
O 7.09233 3.5905 27.8974
O 5.43203 5.39564 26.3975
O 7.04269 3.53835 24.9897
O 3.31706 3.05484 30.3047
O 3.52326 3.53709 27.8983
O 3.93978 0.88698 27.8226
O 2.19151 5.05327 29.1316
Si 2.67096 6.67497 29.2941
Si 1.76887 3.95119 30.4326
O 3.57092 6.87281 30.7075
O 3.55336 6.94618 27.8695
O 2.35527 3.40688 32.0186
O 1.9019 2.94659 28.902
O -1.07575 5.72314 32.4749
Si -0.485715 7.43735 29.374
Si -1 4.26012 31.7975
O 1.19243 7.48274 29.3529
O 0.113351 4.13619 30.4127
O -4.39532 4.16583 26.6323
Si -4.74363 5.74381 26.3491
Si -3.42122 3.21191 27.5519
O -1.06367 5.92751 29.0901
Si -1.79725 7.18892 26.4525
Si -0.875771 4.29251 28.8576
O -1.22302 7.85445 27.8974
O -3.45288 6.83322 26.3975
O -1.18877 7.79112 24.9897
O -1.88021 4.09843 30.3047
O -2.27514 4.44356 27.8983
O 0.373978 4.02076 27.8226
O -4.12865 3.64551 29.1316
Si -5.52281 4.60263 29.2941
Si -3.21111 2.903 30.4326
O -5.43286 5.51968 30.7075
O -5.50807 5.52565 27.8695
O -2.51223 3.29249 32.0186
O -2.21457 2.71907 28.902
O -5.77535 0.745157 32.4749
Si -7.22334 1.83604 29.374
Si -4.36053 0.3651 31.7975
O -6.74794 3.44607 29.3529
O -3.89863 1.38567 30.4127
O -5.32006 -2.89317 26.6323
Si -6.92844 -2.73682 26.3491
Si -4.11181 -2.26152 27.5519
O -5.96599 0.8198 29.0901
Si -7.39235 0.511917 26.4525
Si -4.35294 0.49326 28.8576
O -7.84786 1.2637 27.8974
O -7.56568 -1.17259 26.3975
O -7.77704 1.27671 24.9897
O -4.47875 -0.521992 30.3047
O -4.92903 -0.79094 27.8983
O -3.70831 1.59787 27.8226
O -4.7428 -2.80034 29.1316
Si -6.0839 -3.8305 29.2941
Si -3.75309 -2.15715 30.4326
O -6.92826 -3.46157 30.7075
O -6.95718 -3.53126 27.8694
O -3.90756 -1.37212 32.0186
O -3.27022 -1.26622 28.902
O -2.49327 -5.26272 32.4749
Si -3.97821 -6.30273 29.3739
Si -1.69461 -4.03458 31.7975
O -5.36253 -5.35307 29.3529
O -2.52249 -3.27992 30.4127
O 1.10768 -5.95403 26.6323
Si 0.461959 -7.43537 26.3491
Si 0.880316 -4.60973 27.5519
O -2.62317 -5.42096 29.0901
Si -2.77112 -6.87265 26.4525
Si -1.81415 -3.98777 28.8576
O -3.62687 -7.07355 27.8974
O -1.22262 -7.55804 26.3975
O -3.61736 -7.00218 24.9897
O -0.887467 -4.42115 30.3047
O -0.770829 -4.9325 27.8983
O -2.66549 -3.03333 27.8226
O 1.19778 -5.37633 29.1316
Si 1.7631 -6.97013 29.2941
Si 0.891905 -4.23631 30.4326
O 1.1513 -7.65917 30.7075
O 1.20864 -7.7082 27.8694
O 0.0975614 -4.14063 32.0186
O 0.193798 -3.50176 28.902
O 4.23477 -3.99781 32.4749
Si 4.76502 -5.73145 29.374
Si 3.31355 -2.85873 31.7975
O 3.43405 -6.75456 29.3529
O 2.33999 -3.41288 30.4127
O 6.00499 -0.78673 26.6323
Si 7.2143 -1.8586 26.3491
Si 4.65623 -0.587551 27.5519
O 4.34513 -4.17025 29.0901
Si 5.68005 -4.75956 26.4525
Si 3.23208 -2.95795 28.8576
O 5.60667 -5.63551 27.8974
O 6.8104 -3.49864 26.3975
O 5.54174 -5.60441 24.9897
O 3.93061 -2.21054 30.3047
O 4.45298 -2.25763 27.8983
O 2.06129 -3.47269 27.8226
O 5.48341 -0.522522 29.1316
Si 7.1739 -0.477383 29.2941
Si 4.30467 -0.461139 30.4326
O 7.64015 -1.27216 30.7075
O 7.70451 -1.23278 27.8695
O 3.9682 -1.18704 32.0186
O 3.39034 -0.898093 28.902
O 5.11085 2.79182 38.3599
Si 6.92349 2.76038 35.2589
Si 3.74284 2.26768 37.6825
O 7.48524 1.1784 35.2379
O 3.96903 1.17052 36.2977
O 2.60396 5.46768 32.5173
Si 3.99707 6.28657 32.234
Si 1.99774 4.24648 33.4369
O 5.30896 2.84349 34.9751
Si 6.28193 3.93096 32.3374
Si 3.81203 2.15954 34.7425
O 7.09233 3.5905 33.7824
O 5.43203 5.39564 32.2825
O 7.04269 3.53835 30.8746
O 3.31706 3.05484 36.1897
O 3.52326 3.53709 33.7833
O 3.93978 0.88698 33.7075
O 2.19151 5.05327 35.0165
Si 2.67096 6.67497 35.1791
Si 1.76887 3.95119 36.3176
O 3.57092 6.87281 36.5925
O 3.55336 6.94618 33.7544
O 2.35527 3.40688 37.9035
O 1.9019 2.94659 34.7869
O -1.07575 5.72314 38.3599
Si -0.485715 7.43735 35.2589
Si -1 4.26012 37.6825
O 1.19243 7.48274 35.2379
O 0.11335 4.13619 36.2977
O -4.39532 4.16583 32.5173
Si -4.74363 5.74381 32.234
Si -3.42122 3.21191 33.4369
O -1.06367 5.92751 34.9751
Si -1.79725 7.18892 32.3374
Si -0.875772 4.29251 34.7425
O -1.22302 7.85445 33.7824
O -3.45288 6.83322 32.2825
O -1.18877 7.79112 30.8746
O -1.88021 4.09843 36.1897
O -2.27514 4.44356 33.7833
O 0.373978 4.02076 33.7075
O -4.12865 3.64551 35.0165
Si -5.52281 4.60263 35.1791
Si -3.21111 2.903 36.3176
O -5.43286 5.51968 36.5925
O -5.50807 5.52565 33.7544
O -2.51223 3.29249 37.9035
O -2.21457 2.71907 34.7869
O -5.77535 0.745156 38.3599
Si -7.22334 1.83604 35.2589
Si -4.36053 0.3651 37.6824
O -6.74794 3.44607 35.2379
O -3.89863 1.38567 36.2977
O -5.32006 -2.89317 32.5173
Si -6.92844 -2.73682 32.234
Si -4.11181 -2.26152 33.4369
O -5.96599 0.8198 34.9751
Si -7.39235 0.511917 32.3374
Si -4.35294 0.49326 34.7425
O -7.84786 1.2637 33.7824
O -7.56568 -1.17259 32.2825
O -7.77704 1.27671 30.8746
O -4.47875 -0.521992 36.1897
O -4.92903 -0.79094 33.7833
O -3.70831 1.59787 33.7075
O -4.7428 -2.80034 35.0165
Si -6.0839 -3.8305 35.1791
Si -3.75309 -2.15715 36.3176
O -6.92826 -3.46157 36.5925
O -6.95718 -3.53126 33.7544
O -3.90756 -1.37212 37.9035
O -3.27022 -1.26622 34.7869
O -2.49327 -5.26272 38.3599
Si -3.97821 -6.30273 35.2589
Si -1.69461 -4.03459 37.6824
O -5.36253 -5.35307 35.2379
O -2.52249 -3.27992 36.2977
O 1.10768 -5.95403 32.5173
Si 0.461959 -7.43537 32.234
Si 0.880316 -4.60973 33.4369
O -2.62317 -5.42096 34.9751
Si -2.77112 -6.87265 32.3374
Si -1.81415 -3.98777 34.7425
O -3.62687 -7.07355 33.7824
O -1.22262 -7.55804 32.2825
O -3.61736 -7.00218 30.8746
O -0.887466 -4.42115 36.1897
O -0.770829 -4.9325 33.7833
O -2.66549 -3.03333 33.7075
O 1.19778 -5.37633 35.0165
Si 1.7631 -6.97013 35.1791
Si 0.891905 -4.23631 36.3176
O 1.1513 -7.65917 36.5925
O 1.20864 -7.7082 33.7544
O 0.0975612 -4.14063 37.9035
O 0.193799 -3.50176 34.7869
O 4.23477 -3.99781 38.3599
Si 4.76502 -5.73145 35.2589
Si 3.31355 -2.85873 37.6824
O 3.43405 -6.75457 35.2379
O 2.33999 -3.41288 36.2977
O 6.00499 -0.78673 32.5173
Si 7.2143 -1.8586 32.234
Si 4.65623 -0.587551 33.4369
O 4.34513 -4.17025 34.9751
Si 5.68005 -4.75956 32.3374
Si 3.23208 -2.95795 34.7425
O 5.60667 -5.63551 33.7824
O 6.8104 -3.49864 32.2825
O 5.54174 -5.60441 30.8746
O 3.93061 -2.21054 36.1897
O 4.45298 -2.25763 33.7833
O 2.06129 -3.47269 33.7075
O 5.48342 -0.522522 35.0165
Si 7.1739 -0.477383 35.1791
Si 4.30467 -0.461139 36.3176
O 7.64015 -1.27216 36.5925
O 7.70451 -1.23278 33.7544
O 3.9682 -1.18704 37.9035
O 3.39034 -0.898094 34.7869
O 5.11085 2.79182 44.2449
Si 6.92349 2.76038 41.1439
Si 3.74284 2.26768 43.5674
O 7.48524 1.1784 41.1228
O 3.96903 1.17052 42.1827
O 2.60396 5.46768 38.4023
Si 3.99707 6.28657 38.119
Si 1.99774 4.24648 39.3218
O 5.30896 2.84349 40.86
Si 6.28193 3.93096 38.2224
Si 3.81203 2.15954 40.6275
O 7.09233 3.5905 39.6674
O 5.43203 5.39564 38.1674
O 7.04269 3.53835 36.7596
O 3.31706 3.05484 42.0747
O 3.52326 3.53709 39.6682
O 3.93978 0.88698 39.5925
O 2.19151 5.05327 40.9015
Si 2.67096 6.67497 41.0641
Si 1.76887 3.95119 42.2026
O 3.57092 6.87281 42.4775
O 3.55336 6.94618 39.6394
O 2.35527 3.40688 43.7885
O 1.9019 2.94659 40.6719
O -1.07575 5.72314 44.2449
Si -0.485714 7.43735 41.1439
Si -1 4.26012 43.5674
O 1.19243 7.48274 41.1228
O 0.113351 4.13619 42.1827
O -4.39532 4.16583 38.4023
Si -4.74363 5.74381 38.119
Si -3.42122 3.21191 39.3218
O -1.06367 5.92752 40.8601
Si -1.79725 7.18892 38.2224
Si -0.875771 4.29251 40.6275
O -1.22302 7.85445 39.6674
O -3.45288 6.83322 38.1674
O -1.18877 7.79112 36.7596
O -1.88021 4.09843 42.0747
O -2.27514 4.44356 39.6682
O 0.373978 4.02076 39.5925
O -4.12865 3.64551 40.9015
Si -5.52281 4.60263 41.0641
Si -3.21111 2.903 42.2026
O -5.43286 5.51968 42.4775
O -5.50807 5.52565 39.6394
O -2.51223 3.29249 43.7885
O -2.21457 2.71907 40.6719
O -5.77535 0.745157 44.2449
Si -7.22334 1.83604 41.1439
Si -4.36053 0.365101 43.5674
O -6.74794 3.44607 41.1228
O -3.89863 1.38567 42.1827
O -5.32006 -2.89317 38.4023
Si -6.92844 -2.73682 38.119
Si -4.11181 -2.26152 39.3218
O -5.96599 0.8198 40.8601
Si -7.39235 0.511917 38.2224
Si -4.35294 0.49326 40.6275
O -7.84786 1.2637 39.6674
O -7.56568 -1.17259 38.1674
O -7.77704 1.27671 36.7596
O -4.47875 -0.521992 42.0747
O -4.92903 -0.79094 39.6682
O -3.70831 1.59787 39.5925
O -4.7428 -2.80034 40.9015
Si -6.0839 -3.8305 41.0641
Si -3.75309 -2.15715 42.2026
O -6.92826 -3.46157 42.4775
O -6.95718 -3.53126 39.6394
O -3.90756 -1.37212 43.7885
O -3.27022 -1.26622 40.6719
O -2.49327 -5.26272 44.2449
Si -3.97821 -6.30273 41.1439
Si -1.69461 -4.03458 43.5674
O -5.36253 -5.35307 41.1228
O -2.52249 -3.27992 42.1827
O 1.10768 -5.95403 38.4023
Si 0.461959 -7.43537 38.119
Si 0.880316 -4.60973 39.3218
O -2.62317 -5.42096 40.8601
Si -2.77112 -6.87265 38.2224
Si -1.81415 -3.98777 40.6275
O -3.62687 -7.07355 39.6674
O -1.22262 -7.55804 38.1674
O -3.61736 -7.00218 36.7596
O -0.887467 -4.42115 42.0747
O -0.770829 -4.9325 39.6682
O -2.66549 -3.03333 39.5925
O 1.19778 -5.37633 40.9015
Si 1.7631 -6.97013 41.0641
Si 0.891905 -4.23631 42.2026
O 1.1513 -7.65917 42.4775
O 1.20864 -7.7082 39.6394
O 0.0975613 -4.14063 43.7885
O 0.193799 -3.50176 40.6719
O 4.23477 -3.99781 44.2449
Si 4.76502 -5.73145 41.1439
Si 3.31355 -2.85873 43.5674
O 3.43405 -6.75457 41.1228
O 2.33999 -3.41288 42.1827
O 6.00499 -0.78673 38.4023
Si 7.2143 -1.8586 38.119
Si 4.65623 -0.587551 39.3218
O 4.34513 -4.17025 40.8601
Si 5.68005 -4.75956 38.2224
Si 3.23208 -2.95795 40.6275
O 5.60667 -5.63551 39.6674
O 6.8104 -3.49865 38.1674
O 5.54174 -5.60441 36.7596
O 3.93061 -2.21054 42.0747
O 4.45298 -2.25763 39.6682
O 2.06129 -3.47269 39.5925
O 5.48342 -0.522522 40.9015
Si 7.1739 -0.477383 41.0641
Si 4.30467 -0.461139 42.2026
O 7.64015 -1.27216 42.4775
O 7.70451 -1.23278 39.6394
O 3.9682 -1.18704 43.7885
O 3.39034 -0.898094 40.6719
O 5.11085 2.79182 50.1299
Si 6.92349 2.76038 47.0289
Si 3.74284 2.26768 49.4524
O 7.48524 1.1784 47.0078
O 3.96903 1.17053 48.0677
O 2.60396 5.46768 44.2872
Si 3.99707 6.28657 44.004
Si 1.99774 4.24648 45.2068
O 5.30896 2.84349 46.745
Si 6.28193 3.93096 44.1074
Si 3.81203 2.15954 46.5125
O 7.09233 3.5905 45.5524
O 5.43203 5.39564 44.0524
O 7.04269 3.53835 42.6446
O 3.31706 3.05484 47.9596
O 3.52326 3.53709 45.5532
O 3.93978 0.88698 45.4775
O 2.19151 5.05327 46.7865
Si 2.67096 6.67497 46.9491
Si 1.76887 3.95119 48.0876
O 3.57092 6.87281 48.3624
O 3.55336 6.94618 45.5244
O 2.35527 3.40688 49.6735
O 1.9019 2.94659 46.5569
O -1.07575 5.72314 50.1299
Si -0.485714 7.43735 47.0289
Si -1 4.26012 49.4524
O 1.19243 7.48274 47.0078
O 0.113351 4.13619 48.0677
O -4.39532 4.16583 44.2872
Si -4.74363 5.74381 44.004
Si -3.42122 3.21191 45.2068
O -1.06367 5.92752 46.745
Si -1.79725 7.18892 44.1074
Si -0.875771 4.29251 46.5125
O -1.22302 7.85445 45.5524
O -3.45288 6.83322 44.0524
O -1.18877 7.79112 42.6446
O -1.88021 4.09843 47.9596
O -2.27514 4.44356 45.5532
O 0.373978 4.02076 45.4775
O -4.12865 3.64551 46.7865
Si -5.52281 4.60263 46.9491
Si -3.21111 2.903 48.0876
O -5.43286 5.51968 48.3624
O -5.50807 5.52565 45.5244
O -2.51222 3.29249 49.6735
O -2.21457 2.71907 46.5569
O -5.77535 0.745157 50.1299
Si -7.22334 1.83604 47.0289
Si -4.36053 0.365101 49.4524
O -6.74794 3.44607 47.0078
O -3.89863 1.38567 48.0677
O -5.32006 -2.89317 44.2872
Si -6.92844 -2.73682 44.004
Si -4.11181 -2.26152 45.2068
O -5.96599 0.8198 46.745
Si -7.39235 0.511917 44.1074
Si -4.35294 0.493261 46.5125
O -7.84786 1.2637 45.5524
O -7.56568 -1.17259 44.0524
O -7.77704 1.27671 42.6446
O -4.47875 -0.521992 47.9596
O -4.92903 -0.790939 45.5532
O -3.70831 1.59787 45.4775
O -4.7428 -2.80034 46.7865
Si -6.0839 -3.8305 46.9491
Si -3.75309 -2.15715 48.0876
O -6.92826 -3.46157 48.3624
O -6.95718 -3.53126 45.5244
O -3.90756 -1.37212 49.6735
O -3.27022 -1.26622 46.5569
O -2.49327 -5.26272 50.1299
Si -3.97821 -6.30273 47.0289
Si -1.69461 -4.03458 49.4524
O -5.36253 -5.35307 47.0078
O -2.52249 -3.27992 48.0677
O 1.10768 -5.95403 44.2872
Si 0.461959 -7.43537 44.004
Si 0.880316 -4.60973 45.2068
O -2.62317 -5.42096 46.745
Si -2.77112 -6.87265 44.1074
Si -1.81415 -3.98777 46.5125
O -3.62687 -7.07355 45.5524
O -1.22262 -7.55804 44.0524
O -3.61736 -7.00218 42.6446
O -0.887467 -4.42115 47.9596
O -0.770828 -4.9325 45.5532
O -2.66549 -3.03333 45.4775
O 1.19778 -5.37633 46.7865
Si 1.7631 -6.97013 46.9491
Si 0.891906 -4.23631 48.0876
O 1.1513 -7.65916 48.3624
O 1.20864 -7.7082 45.5244
O 0.0975615 -4.14063 49.6735
O 0.193799 -3.50176 46.5569
O 4.23477 -3.99781 50.1299
Si 4.76502 -5.73145 47.0289
Si 3.31355 -2.85873 49.4524
O 3.43405 -6.75456 47.0078
O 2.33999 -3.41288 48.0677
O 6.00499 -0.78673 44.2872
Si 7.2143 -1.8586 44.004
Si 4.65623 -0.587551 45.2068
O 4.34513 -4.17025 46.745
Si 5.68005 -4.75956 44.1074
Si 3.23208 -2.95795 46.5125
O 5.60667 -5.63551 45.5524
O 6.8104 -3.49864 44.0524
O 5.54174 -5.60441 42.6446
O 3.93061 -2.21054 47.9596
O 4.45298 -2.25763 45.5532
O 2.06129 -3.47269 45.4775
O 5.48342 -0.522522 46.7865
Si 7.1739 -0.477383 46.9491
Si 4.30467 -0.461138 48.0876
O 7.64015 -1.27216 48.3624
O 7.70451 -1.23278 45.5244
O 3.9682 -1.18704 49.6735
O 3.39034 -0.898093 46.5569
O 5.11085 2.79182 56.0148
Si 6.9235 2.76038 52.9138
Si 3.74284 2.26768 55.3374
O 7.48524 1.1784 52.8928
O 3.96903 1.17053 53.9526
O 2.60396 5.46768 50.1722
Si 3.99707 6.28657 49.889
Si 1.99774 4.24648 51.0918
O 5.30896 2.84349 52.63
Si 6.28193 3.93096 49.9923
Si 3.81203 2.15954 52.3975
O 7.09233 3.5905 51.4373
O 5.43203 5.39564 49.9374
O 7.04269 3.53835 48.5296
O 3.31706 3.05484 53.8446
O 3.52327 3.53709 51.4382
O 3.93978 0.886981 51.3625
O 2.19151 5.05328 52.6714
Si 2.67096 6.67497 52.834
Si 1.76887 3.95119 53.9725
O 3.57092 6.87281 54.2474
O 3.55336 6.94618 51.4093
O 2.35527 3.40688 55.5584
O 1.9019 2.94659 52.4419
O -1.07575 5.72314 56.0148
Si -0.485713 7.43735 52.9138
Si -1 4.26012 55.3374
O 1.19243 7.48274 52.8928
O 0.113352 4.13619 53.9526
O -4.39532 4.16583 50.1722
Si -4.74363 5.74381 49.889
Si -3.42122 3.21191 51.0918
O -1.06367 5.92752 52.63
Si -1.79725 7.18892 49.9923
Si -0.875771 4.29251 52.3975
O -1.22302 7.85445 51.4373
O -3.45288 6.83323 49.9374
O -1.18877 7.79112 48.5296
O -1.88021 4.09843 53.8446
O -2.27514 4.44356 51.4382
O 0.373979 4.02076 51.3625
O -4.12865 3.64551 52.6714
Si -5.52281 4.60263 52.834
Si -3.2111 2.903 53.9725
O -5.43286 5.51968 54.2474
O -5.50807 5.52565 51.4093
O -2.51222 3.29249 55.5584
O -2.21456 2.71907 52.4419
O -5.77535 0.745158 56.0148
Si -7.22334 1.83604 52.9138
Si -4.36053 0.365101 55.3374
O -6.74794 3.44607 52.8928
O -3.89863 1.38567 53.9526
O -5.32006 -2.89317 50.1722
Si -6.92844 -2.73682 49.8889
Si -4.11181 -2.26152 51.0918
O -5.96599 0.819801 52.63
Si -7.39235 0.511918 49.9923
Si -4.35294 0.493261 52.3975
O -7.84786 1.2637 51.4373
O -7.56568 -1.17259 49.9374
O -7.77704 1.27671 48.5296
O -4.47875 -0.521991 53.8446
O -4.92903 -0.790939 51.4382
O -3.70831 1.59787 51.3625
O -4.7428 -2.80034 52.6714
Si -6.0839 -3.8305 52.834
Si -3.75309 -2.15715 53.9725
O -6.92826 -3.46157 54.2474
O -6.95718 -3.53126 51.4093
O -3.90756 -1.37212 55.5584
O -3.27022 -1.26622 52.4419
O -2.49327 -5.26272 56.0148
Si -3.97821 -6.30273 52.9138
Si -1.69461 -4.03458 55.3374
O -5.36253 -5.35307 52.8928
O -2.52249 -3.27991 53.9526
O 1.10768 -5.95403 50.1722
Si 0.46196 -7.43537 49.8889
Si 0.880316 -4.60973 51.0918
O -2.62317 -5.42096 52.63
Si -2.77112 -6.87265 49.9923
Si -1.81415 -3.98777 52.3975
O -3.62687 -7.07355 51.4373
O -1.22262 -7.55804 49.9374
O -3.61736 -7.00218 48.5296
O -0.887467 -4.42115 53.8446
O -0.770828 -4.9325 51.4382
O -2.66549 -3.03333 51.3625
O 1.19778 -5.37633 52.6714
Si 1.7631 -6.97013 52.834
Si 0.891906 -4.23631 53.9725
O 1.1513 -7.65916 54.2474
O 1.20864 -7.7082 51.4093
O 0.0975619 -4.14063 55.5584
O 0.193799 -3.50176 52.4419
O 4.23477 -3.99781 56.0148
Si 4.76502 -5.73145 52.9138
Si 3.31355 -2.85873 55.3374
O 3.43405 -6.75456 52.8928
O 2.33999 -3.41288 53.9526
O 6.00499 -0.78673 50.1722
Si 7.2143 -1.8586 49.889
Si 4.65623 -0.587551 51.0918
O 4.34513 -4.17025 52.63
Si 5.68005 -4.75956 49.9923
Si 3.23208 -2.95795 52.3975
O 5.60667 -5.63551 51.4373
O 6.8104 -3.49864 49.9374
O 5.54174 -5.60441 48.5296
O 3.93061 -2.21054 53.8446
O 4.45298 -2.25763 51.4382
O 2.06129 -3.47269 51.3625
O 5.48342 -0.522522 52.6714
Si 7.1739 -0.477383 52.834
Si 4.30467 -0.461138 53.9725
O 7.64016 -1.27216 54.2474
O 7.70451 -1.23278 51.4093
O 3.96821 -1.18704 55.5584
O 3.39034 -0.898093 52.4419
O 5.11085 2.79182 61.8998
Si 6.9235 2.76038 58.7988
Si 3.74284 2.26768 61.2223
O 7.48524 1.1784 58.7778
O 3.96903 1.17053 59.8376
O 2.60396 5.46768 56.0572
Si 3.99707 6.28657 55.7739
Si 1.99774 4.24648 56.9768
O 5.30896 2.84349 58.515
Si 6.28193 3.93096 55.8773
Si 3.81203 2.15954 58.2824
O 7.09233 3.5905 57.3223
O 5.43203 5.39564 55.8224
O 7.04269 3.53835 54.4145
O 3.31706 3.05484 59.7296
O 3.52327 3.53709 57.3232
O 3.93978 0.886981 57.2474
O 2.19151 5.05328 58.5564
Si 2.67096 6.67497 58.719
Si 1.76888 3.95119 59.8575
O 3.57092 6.87281 60.1324
O 3.55336 6.94618 57.2943
O 2.35527 3.40688 61.4434
O 1.9019 2.94659 58.3268
O -1.07575 5.72314 61.8998
Si -0.485713 7.43735 58.7988
Si -1 4.26012 61.2223
O 1.19243 7.48274 58.7778
O 0.113352 4.13619 59.8376
O -4.39532 4.16583 56.0572
Si -4.74363 5.74381 55.7739
Si -3.42122 3.21191 56.9768
O -1.06367 5.92752 58.515
Si -1.79725 7.18892 55.8773
Si -0.87577 4.29251 58.2824
O -1.22302 7.85445 57.3223
O -3.45288 6.83323 55.8224
O -1.18877 7.79112 54.4145
O -1.88021 4.09843 59.7296
O -2.27514 4.44356 57.3232
O 0.373979 4.02076 57.2474
O -4.12865 3.64551 58.5564
Si -5.52281 4.60263 58.719
Si -3.2111 2.903 59.8575
O -5.43286 5.51968 60.1324
O -5.50807 5.52565 57.2943
O -2.51222 3.29249 61.4434
O -2.21456 2.71907 58.3268
O -5.77535 0.745158 61.8998
Si -7.22334 1.83604 58.7988
Si -4.36053 0.365102 61.2223
O -6.74794 3.44607 58.7778
O -3.89863 1.38567 59.8376
O -5.32006 -2.89317 56.0572
Si -6.92844 -2.73682 55.7739
Si -4.11181 -2.26152 56.9768
O -5.96599 0.819802 58.515
Si -7.39235 0.511918 55.8773
Si -4.35294 0.493262 58.2824
O -7.84786 1.2637 57.3223
O -7.56568 -1.17259 55.8224
O -7.77704 1.27671 54.4145
O -4.47875 -0.521991 59.7296
O -4.92903 -0.790938 57.3232
O -3.70831 1.59787 57.2474
O -4.7428 -2.80034 58.5564
Si -6.0839 -3.8305 58.719
Si -3.75309 -2.15715 59.8575
O -6.92826 -3.46157 60.1324
O -6.95718 -3.53126 57.2943
O -3.90756 -1.37212 61.4434
O -3.27022 -1.26622 58.3268
O -2.49327 -5.26272 61.8998
Si -3.97821 -6.30273 58.7988
Si -1.69461 -4.03458 61.2223
O -5.36253 -5.35307 58.7778
O -2.52249 -3.27991 59.8376
O 1.10768 -5.95403 56.0572
Si 0.46196 -7.43537 55.7739
Si 0.880316 -4.60972 56.9768
O -2.62317 -5.42096 58.515
Si -2.77112 -6.87265 55.8773
Si -1.81415 -3.98776 58.2824
O -3.62687 -7.07355 57.3223
O -1.22262 -7.55804 55.8224
O -3.61736 -7.00218 54.4145
O -0.887466 -4.42115 59.7296
O -0.770828 -4.9325 57.3232
O -2.66549 -3.03333 57.2474
O 1.19778 -5.37633 58.5564
Si 1.7631 -6.97013 58.719
Si 0.891906 -4.23631 59.8575
O 1.1513 -7.65916 60.1324
O 1.20864 -7.7082 57.2943
O 0.0975618 -4.14063 61.4434
O 0.193799 -3.50176 58.3268
O 4.23477 -3.99781 61.8998
Si 4.76502 -5.73145 58.7988
Si 3.31355 -2.85873 61.2223
O 3.43405 -6.75456 58.7778
O 2.33999 -3.41288 59.8376
O 6.00499 -0.78673 56.0572
Si 7.2143 -1.8586 55.7739
Si 4.65623 -0.587551 56.9768
O 4.34513 -4.17025 58.515
Si 5.68005 -4.75956 55.8773
Si 3.23208 -2.95795 58.2824
O 5.60667 -5.63551 57.3223
O 6.8104 -3.49864 55.8224
O 5.54174 -5.60441 54.4145
O 3.93061 -2.21054 59.7296
O 4.45298 -2.25763 57.3232
O 2.06129 -3.47269 57.2474
O 5.48342 -0.522522 58.5564
Si 7.1739 -0.477383 58.719
Si 4.30467 -0.461138 59.8575
O 7.64016 -1.27216 60.1324
O 7.70451 -1.23278 57.2943
O 3.96821 -1.18704 61.4434
O 3.39034 -0.898093 58.3268
O 5.11085 2.79182 67.7848
Si 6.9235 2.76038 64.6838
Si 3.74284 2.26768 67.1073
O 7.48524 1.1784 64.6627
O 3.96903 1.17053 65.7226
O 2.60396 5.46768 61.9422
Si 3.99707 6.28657 61.6589
Si 1.99774 4.24648 62.8617
O 5.30896 2.84349 64.3999
Si 6.28193 3.93096 61.7623
Si 3.81203 2.15954 64.1674
O 7.09233 3.5905 63.2073
O 5.43203 5.39564 61.7073
O 7.04269 3.53835 60.2995
O 3.31707 3.05484 65.6146
O 3.52327 3.53709 63.2081
O 3.93978 0.886981 63.1324
O 2.19151 5.05328 64.4414
Si 2.67097 6.67497 64.604
Si 1.76888 3.95119 65.7425
O 3.57092 6.8728 66.0174
O 3.55336 6.94618 63.1793
O 2.35527 3.40688 67.3284