2592
 Atoms. Timestep: 17432
O 25.9432 4.971 3.11268
Si 27.5878 4.91357 3.10241
Si 24.3977 4.43019 3.09557
O 26.3844 1.22683 3.11303
Si 27.9708 1.66469 3.10237
Si 24.7556 1.39366 3.09553
O 28.5 0.869831 4.47563
O 28.1677 3.33492 3.10149
O 28.5 0.869432 1.72971
O 24.251 0.942221 4.55958
O 24.246 2.87297 2.76861
O 24.263 0.54337 1.81363
O 24.6866 9.40399 0.366655
Si 26.3162 9.63369 0.356534
Si 23.2586 8.60301 0.349632
O 25.7721 5.794 0.367186
Si 27.2582 6.50085 0.356513
Si 24.139 5.67496 0.349678
O 27.9176 5.8101 1.72975
O 27.1618 8.17992 0.355536
O 27.9177 5.80965 31.9349
O 23.7208 5.14251 1.81371
O 23.3797 7.04303 0.0229448
O 23.8019 4.75199 32.0187
O 22.6785 13.5515 3.11286
Si 24.2434 14.0609 3.10246
Si 21.4114 12.5145 3.09554
O 24.375 10.1851 3.11311
Si 25.7157 11.1396 3.10246
Si 22.7875 9.78401 3.09557
O 26.4851 10.574 4.47575
O 25.3288 12.7763 3.10143
O 26.4852 10.5734 1.72987
O 22.4682 9.18698 4.55962
O 21.802 10.9993 2.76883
O 22.616 8.81644 1.81366
O 19.9802 17.287 0.366725
Si 21.4328 18.0606 0.35645
Si 18.9125 16.0457 0.349606
O 22.2357 14.2668 0.366965
Si 23.3902 15.4395 0.356541
Si 20.7422 13.5958 0.349622
O 24.2462 15.0162 1.72982
O 22.725 16.9842 0.355536
O 24.2465 15.0158 31.9349
O 20.5316 12.9522 1.81365
O 19.5603 14.6213 0.023072
O 20.7414 12.6131 32.0187
O 16.674 20.4973 3.11283
Si 17.9702 21.5112 3.10239
Si 15.8381 19.0893 3.09544
O 19.4199 17.9145 3.11301
Si 20.3531 19.27 3.10238
Si 18.0655 16.9944 3.09555
O 21.2697 19.0019 4.47563
O 19.4297 20.6756 3.10145
O 21.2699 19.0015 1.72977
O 17.9699 16.324 4.55957
O 16.7235 17.7991 2.76898
O 18.2355 16.0266 1.8136
O 12.861 23.0848 0.36688
Si 13.9614 24.3085 0.356476
Si 12.2822 21.5532 0.349493
O 16.0132 21.0179 0.366966
Si 16.697 22.5148 0.356486
Si 14.8392 19.8765 0.349534
O 17.6462 22.4098 1.72972
O 15.5437 23.7388 0.355617
O 17.6464 22.4096 31.9348
O 14.8616 19.1996 1.81353
O 13.3779 20.4361 0.0231282
O 15.1746 18.9529 32.0185
O 8.65717 24.9716 3.11262
Si 9.52852 26.3677 3.10241
Si 8.35259 23.3628 3.09536
O 12.12 23.483 3.11249
Si 12.5337 25.0759 3.10238
Si 11.1618 22.1553 3.09541
O 13.4866 25.1372 4.47562
O 11.1856 26.0813 3.10159
O 13.4869 25.1371 1.72969
O 11.3014 21.4924 4.55935
O 9.62548 22.4526 2.76927
O 11.6523 21.3038 1.81343
O 4.18953 26.1013 0.366742
Si 4.80576 27.6273 0.356426
Si 4.16866 24.4641 0.34939
O 7.85808 25.2354 0.366736
Si 7.98937 26.8758 0.356488
Si 7.1447 23.7616 0.349444
O 8.91712 27.1015 1.72976
O 6.48744 27.6323 0.355556
O 8.91748 27.1014 31.9348
O 7.39725 23.1329 1.81334
O 5.58005 23.7882 0.023335
O 7.77534 23.008 32.0184
O -0.406072 26.4393 3.11266
Si -0.0638371 28.049 3.10223
Si -0.142962 24.8232 3.09534
O 3.35693 26.2225 3.11254
Si 3.20187 27.8609 3.10232
Si 2.90986 24.6474 3.0953
O 4.07647 28.244 4.47557
O 1.59152 28.3456 3.10134
O 4.07685 28.244 1.7297
O 3.26763 24.072 4.55919
O 1.36426 24.4022 2.76938
O 3.66161 24.0146 1.81328
O -4.99108 25.9758 0.366757
Si -4.93306 27.6205 0.35637
Si -4.45165 24.4298 0.349395
O -1.24728 26.4145 0.366826
Si -1.68413 28.0011 0.356319
Si -1.41455 24.7857 0.349436
O -0.889186 28.53 1.72963
O -3.35412 28.1994 0.355362
O -0.88861 28.53 31.9347
O -0.96238 24.2809 1.81328
O -2.89428 24.2765 0.023404
O -0.564576 24.2927 32.0183
O -9.42616 24.7244 3.11252
Si -9.65427 26.3542 3.10228
Si -8.62679 23.2954 3.09531
O -5.81522 25.8055 3.11278
Si -6.52052 27.2924 3.10229
Si -5.69744 24.1724 3.09531
O -5.8292 27.9511 4.47555
O -8.19961 27.1981 3.10132
O -5.82881 27.9511 1.72964
O -5.16464 23.7537 4.55915
O -7.06643 23.4143 2.76926
O -4.77482 23.8343 1.81331
O -13.5768 22.7226 0.366767
Si -14.0842 24.2881 0.356484
Si -12.5417 21.454 0.349425
O -10.2082 24.4138 0.366994
Si -11.1608 25.7558 0.356381
Si -9.80899 22.8259 0.34941
O -10.5943 26.5244 1.72971
O -12.7981 25.3716 0.355444
O -10.5938 26.5245 31.9347
O -9.21183 22.5059 1.81332
O -11.0257 21.8419 0.023109
O -8.84166 22.653 32.0184
O -17.3174 20.0309 3.11272
Si -18.0886 21.4846 3.10238
Si -16.0776 18.9614 3.0954
O -14.2929 22.2813 3.11294
Si -15.4641 23.4375 3.10241
Si -13.6244 20.7867 3.09534
O -15.0395 24.2927 4.47573
O -17.0099 22.7749 3.10147
O -15.0391 24.2929 1.72974
O -12.9809 20.5749 4.55929
O -14.6522 19.6068 2.76878
O -12.6417 20.7841 1.81342
O -20.5332 16.7305 0.366905
Si -21.5453 18.0282 0.356528
Si -19.1265 15.8927 0.349516
O -17.9457 19.4722 0.366981
Si -19.2999 20.4073 0.356488
Si -17.0278 18.1163 0.349495
O -19.0301 21.3233 1.72974
O -20.7071 19.4862 0.355649
O -19.0298 21.3236 31.9348
O -16.3575 18.0194 1.8135
O -17.835 16.7759 0.0226455
O -16.0596 18.2845 32.0186
O -23.1267 12.9214 3.11295
Si -24.3488 14.0235 3.10248
Si -21.5957 12.341 3.09546
O -21.0548 16.0712 3.113
Si -22.551 16.7567 3.10244
Si -19.9153 14.8955 3.09543
O -22.4445 17.7056 4.47573
O -23.7767 15.6051 3.10151
O -22.4442 17.7059 1.72975
O -19.2385 14.9163 4.55947
O -20.4775 13.4354 2.76833
O -18.9909 15.2294 1.81364
O -25.0181 8.71964 0.367122
Si -26.4134 9.59237 0.356591
Si -23.4095 8.41429 0.349574
O -23.5256 12.1815 0.367088
Si -25.1181 12.5965 0.356563
Si -22.1989 11.2219 0.349548
O -25.1782 13.5495 1.72984
O -26.1249 11.2493 0.35558
O -25.178 13.5499 31.9349
O -21.5362 11.36 1.81365
O -22.4986 9.68631 0.0224722
O -21.3468 11.7116 32.0187
O -26.1497 4.25281 3.11312
Si -27.6754 4.86953 3.10259
Si -24.5125 4.2319 3.09549
O -25.2823 7.92167 3.11284
Si -26.9227 8.05321 3.10251
Si -23.809 7.20737 3.09548
O -27.1477 8.98124 4.4758
O -27.6797 6.55136 3.10159
O -27.1475 8.98171 1.72988
O -23.1804 7.45865 4.55956
O -23.8368 5.64304 2.76849
O -23.0549 7.83771 1.81368
O -26.487 -0.342765 0.367047
Si -28.0968 -0.000757162 0.356614
Si -24.8711 -0.078721 0.349593
O -26.271 3.42091 0.366892
Si -27.9093 3.26527 0.356678
Si -24.6958 2.97382 0.349564
O -28.2922 4.14 1.72998
O -28.3936 1.65469 0.355773
O -28.2922 4.14046 31.935
O -24.1206 3.33072 1.81363
O -24.4511 1.42845 0.0226061
O -24.063 3.72565 32.0187
O -26.0196 -4.92695 3.11293
Si -27.6644 -4.87013 3.10249
Si -24.4742 -4.38605 3.09554
O -26.4617 -1.18318 3.1128
Si -28.048 -1.62124 3.10251
Si -24.8328 -1.34957 3.0955
O -28.5773 -0.826346 4.47575
O -28.2446 -3.29156 3.10157
O -28.5773 -0.82598 1.72988
O -24.3284 -0.89803 4.5596
O -24.3228 -2.82877 2.76868
O -24.3404 -0.499066 1.81365
O -24.7622 -9.36032 0.366952
Si -26.3918 -9.59014 0.356511
Si -23.3344 -8.55892 0.349581
O -25.8485 -5.75009 0.366902
Si -27.3344 -6.45741 0.356566
Si -24.2155 -5.63097 0.349626
O -27.9939 -5.76677 1.72983
O -27.2376 -8.13645 0.355611
O -27.994 -5.76636 31.9349
O -23.7973 -5.0985 1.81368
O -23.4562 -6.99901 0.0227198
O -23.8785 -4.70785 32.0187
O -22.7535 -13.5075 3.11281
Si -24.3184 -14.0171 3.10243
Si -21.4865 -12.4703 3.09542
O -24.4505 -10.1414 3.11278
Si -25.791 -11.096 3.10242
Si -22.8631 -9.74003 3.0955
O -26.5605 -10.5304 4.47566
O -25.404 -12.7326 3.10155
O -26.5606 -10.53 1.72979
O -22.5439 -9.14293 4.55958
O -21.8774 -10.9552 2.76871
O -22.6917 -8.77233 1.81362
O -20.0552 -17.2427 0.366868
Si -21.5077 -18.0163 0.356499
Si -18.9875 -16.0014 0.34941
O -22.3108 -14.2225 0.366817
Si -23.4652 -15.3954 0.356504
Si -20.8172 -13.5516 0.349496
O -24.3212 -14.9722 1.72974
O -22.7999 -16.94 0.355597
O -24.3214 -14.972 31.9348
O -20.6066 -12.9081 1.81357
O -19.6354 -14.5771 0.0228074
O -20.8165 -12.5689 32.0185
O -16.7495 -20.4529 3.11262
Si -18.0457 -21.4669 3.10239
Si -15.9134 -19.0451 3.09529
O -19.4948 -17.8702 3.11267
Si -20.4282 -19.2256 3.1024
Si -18.1405 -16.95 3.09533
O -21.3447 -18.9575 4.47568
O -19.505 -20.6312 3.10138
O -21.345 -18.9572 1.7298
O -18.045 -16.2796 4.55936
O -16.7984 -17.7547 2.76892
O -18.3104 -15.9822 1.81335
O -12.937 -23.0409 0.366835
Si -14.0375 -24.2646 0.356384
Si -12.3577 -21.5095 0.349374
O -16.0886 -20.9737 0.366827
Si -16.7727 -22.4705 0.356474
Si -14.9145 -19.8325 0.349385
O -17.7217 -22.3655 1.72977
O -15.6197 -23.6948 0.355343
O -17.7222 -22.3652 31.9348
O -14.9369 -19.1555 1.81336
O -13.4532 -20.392 0.0231882
O -15.2498 -18.9088 32.0184
O -8.73308 -24.9288 3.11277
Si -9.60469 -26.3248 3.10226
Si -8.42834 -23.32 3.09533
O -12.1958 -23.4394 3.11256
Si -12.6097 -25.0322 3.10229
Si -11.2374 -22.1119 3.09529
O -13.5626 -25.0934 4.4756
O -11.2618 -26.0379 3.10127
O -13.5631 -25.0932 1.7297
O -11.3769 -21.449 4.55921
O -9.70113 -22.4096 2.76919
O -11.7277 -21.2603 1.81328
O -4.2656 -26.0593 0.366564
Si -4.88194 -27.5852 0.356282
Si -4.24439 -24.4221 0.349441
O -7.93379 -25.1928 0.366569
Si -8.06549 -26.8332 0.356338
Si -7.22034 -23.719 0.34941
O -8.99334 -27.0586 1.72961
O -6.56368 -27.59 0.355389
O -8.99378 -27.0586 31.9347
O -7.47295 -23.0903 1.81329
O -5.65564 -23.7457 0.0235732
O -7.85092 -22.9654 32.0183
O 0.330229 -26.3978 3.11257
Si -0.0121454 -28.0075 3.10219
Si 0.0671863 -24.7817 3.0954
O -3.43281 -26.1806 3.11245
Si -3.27788 -27.819 3.10219
Si -2.98555 -24.6055 3.09535
O -4.15266 -28.202 4.47541
O -1.66756 -28.3038 3.10133
O -4.15293 -28.2019 1.72952
O -3.3433 -24.0301 4.55925
O -1.43996 -24.3605 2.76946
O -3.73718 -23.9727 1.81331
O 4.9151 -25.9343 0.366432
Si 4.85708 -27.579 0.356293
Si 4.37575 -24.3883 0.349411
O 1.17157 -26.373 0.36647
Si 1.60819 -27.9597 0.356264
Si 1.33874 -24.7442 0.349464
O 0.813054 -28.4885 1.7295
O 3.27819 -28.158 0.355388
O 0.812707 -28.4886 31.9346
O 0.886581 -24.2395 1.81333
O 2.81838 -24.2347 0.0235141
O 0.48873 -24.2512 32.0184
O 9.3499 -24.6827 3.11271
Si 9.57802 -26.3125 3.10225
Si 8.55052 -23.2537 3.0953
O 5.73906 -25.7642 3.11263
Si 6.44448 -27.251 3.10223
Si 5.62138 -24.1311 3.09535
O 5.75314 -27.9097 4.47546
O 8.12353 -27.1566 3.10137
O 5.75292 -27.9097 1.72949
O 5.08879 -23.7123 4.55922
O 6.99027 -23.3729 2.76908
O 4.69878 -23.7929 1.81335
O 13.5004 -22.6805 0.366975
Si 14.0078 -24.2461 0.356344
Si 12.4651 -21.412 0.349417
O 10.1317 -24.3721 0.366703
Si 11.0844 -25.714 0.35633
Si 9.73251 -22.7842 0.349373
O 10.5179 -26.4826 1.7296
O 12.7216 -25.3296 0.355419
O 10.5176 -26.4828 31.9346
O 9.13545 -22.4641 1.81332
O 10.9492 -21.8003 0.0229783
O 8.76522 -22.6112 32.0184
O 17.2401 -19.9883 3.11253
Si 18.0117 -21.4419 3.1023
Si 16.0003 -18.9188 3.09528
O 14.2163 -22.239 3.11255
Si 15.3875 -23.3952 3.10224
Si 13.5475 -20.7445 3.09529
O 14.9629 -24.2505 4.47549
O 16.9332 -22.7324 3.10133
O 14.9627 -24.2507 1.7296
O 12.9042 -20.5329 4.55928
O 14.5749 -19.5643 2.7688
O 12.5648 -20.7421 1.81336
O 20.4557 -16.6874 0.36573
Si 21.4679 -17.985 0.35645
Si 19.0489 -15.8497 0.349445
O 17.8686 -19.4292 0.36687
Si 19.2228 -20.3644 0.356421
Si 16.9504 -18.0736 0.349382
O 18.9532 -21.2805 1.72965
O 20.6299 -19.4432 0.355657
O 18.9529 -21.2806 31.9347
O 16.2801 -17.9768 1.81337
O 17.7574 -16.733 0.0227132
O 15.9822 -18.242 32.0185
O 23.0486 -12.878 3.11239
Si 24.2709 -13.9799 3.10248
Si 21.5177 -12.2974 3.09545
O 20.9774 -16.0276 3.11347
Si 22.4734 -16.7133 3.10241
Si 19.8376 -14.8521 3.09544
O 22.3671 -17.6624 4.47563
O 23.699 -15.5616 3.10147
O 22.3666 -17.6626 1.72974
O 19.1606 -14.8732 4.55941
O 20.3993 -13.3917 2.76874
O 18.9135 -15.1864 1.81354
O 24.94 -8.67586 0.367386
Si 26.3352 -9.54861 0.356555
Si 23.3314 -8.37022 0.349498
O 23.4477 -12.1377 0.366899
Si 25.0402 -12.5528 0.356567
Si 22.1211 -11.1781 0.34957
O 25.1004 -13.5058 1.72987
O 26.0469 -11.2055 0.355537
O 25.1001 -13.5062 31.9349
O 21.4582 -11.3164 1.81362
O 22.4205 -9.64235 0.0225941
O 21.2689 -11.6678 32.0187
O 26.0719 -4.20895 3.1132
Si 27.5975 -4.82597 3.10245
Si 24.4347 -4.18765 3.09549
O 25.2042 -7.87759 3.11228
Si 26.8446 -8.00953 3.10244
Si 23.731 -7.16312 3.09537
O 27.0695 -8.9375 4.47577
O 27.6017 -6.50779 3.10151
O 27.0695 -8.93809 1.72985
O 23.1025 -7.41447 4.55951
O 23.7588 -5.59876 2.76847
O 22.9769 -7.79335 1.81354
O 26.4097 0.386688 0.366889
Si 28.0193 0.0442993 0.356448
Si 24.7937 0.122907 0.349606
O 26.1932 -3.37706 0.36656
Si 27.8315 -3.22174 0.356515
Si 24.6182 -2.92958 0.349559
O 28.2144 -4.09658 1.72978
O 28.3159 -1.61118 0.355568
O 28.2144 -4.09699 31.9348
O 24.0429 -3.28639 1.81364
O 24.3735 -1.38423 0.0226852
O 23.9851 -3.68125 32.0187
O 25.9431 4.971 8.60451
Si 27.5878 4.91357 8.59424
Si 24.3977 4.43018 8.58739
O 26.3844 1.22683 8.60486
Si 27.9708 1.66468 8.5942
Si 24.7556 1.39366 8.58736
O 28.5 0.869831 9.96746
O 28.1677 3.33492 8.59332
O 28.5 0.869432 7.22154
O 24.251 0.94222 10.0514
O 24.246 2.87297 8.26044
O 24.263 0.543369 7.30545
O 24.6866 9.40399 5.85848
Si 26.3162 9.63369 5.84836
Si 23.2586 8.60301 5.84146
O 25.772 5.794 5.85901
Si 27.2582 6.50085 5.84834
Si 24.139 5.67496 5.8415
O 27.9176 5.8101 7.22158
O 27.1618 8.17992 5.84736
O 27.9177 5.80965 4.47573
O 23.7208 5.14251 7.30554
O 23.3797 7.04303 5.51477
O 23.8019 4.75199 4.55955
O 22.6785 13.5515 8.60468
Si 24.2434 14.0609 8.59428
Si 21.4114 12.5145 8.58736
O 24.375 10.1851 8.60493
Si 25.7157 11.1396 8.59429
Si 22.7875 9.78401 8.5874
O 26.4851 10.574 9.96757
O 25.3288 12.7763 8.59325
O 26.4852 10.5734 7.2217
O 22.4682 9.18698 10.0514
O 21.802 10.9993 8.26066
O 22.616 8.81644 7.30548
O 19.9802 17.287 5.85855
Si 21.4328 18.0606 5.84828
Si 18.9125 16.0457 5.84143
O 22.2357 14.2668 5.85879
Si 23.3902 15.4395 5.84837
Si 20.7422 13.5958 5.84145
O 24.2462 15.0162 7.22165
O 22.725 16.9842 5.84736
O 24.2465 15.0158 4.47577
O 20.5316 12.9522 7.30547
O 19.5603 14.6213 5.5149
O 20.7414 12.6131 4.55956
O 16.674 20.4973 8.60466
Si 17.9702 21.5112 8.59421
Si 15.8381 19.0893 8.58727
O 19.4199 17.9145 8.60483
Si 20.3531 19.27 8.59421
Si 18.0655 16.9944 8.58738
O 21.2697 19.0019 9.96746
O 19.4297 20.6756 8.59328
O 21.2699 19.0015 7.2216
O 17.9699 16.324 10.0514
O 16.7235 17.7991 8.26081
O 18.2355 16.0266 7.30542
O 12.861 23.0848 5.85871
Si 13.9614 24.3085 5.8483
Si 12.2822 21.5532 5.84132
O 16.0132 21.0179 5.85879
Si 16.697 22.5148 5.84831
Si 14.8392 19.8765 5.84136
O 17.6462 22.4098 7.22155
O 15.5437 23.7388 5.84744
O 17.6464 22.4096 4.47565
O 14.8616 19.1996 7.30535
O 13.3779 20.4361 5.51495
O 15.1746 18.9529 4.5594
O 8.65717 24.9716 8.60445
Si 9.52852 26.3677 8.59424
Si 8.35259 23.3628 8.58718
O 12.12 23.483 8.60431
Si 12.5337 25.0759 8.59421
Si 11.1618 22.1553 8.58723
O 13.4866 25.1372 9.96745
O 11.1856 26.0813 8.59342
O 13.4869 25.1371 7.22152
O 11.3014 21.4924 10.0512
O 9.62548 22.4526 8.2611
O 11.6523 21.3038 7.30525
O 4.18953 26.1013 5.85857
Si 4.80576 27.6273 5.84825
Si 4.16866 24.4641 5.84122
O 7.85808 25.2354 5.85856
Si 7.98937 26.8758 5.84831
Si 7.1447 23.7616 5.84127
O 8.91712 27.1015 7.22159
O 6.48744 27.6323 5.84738
O 8.91748 27.1014 4.47565
O 7.39726 23.1329 7.30516
O 5.58005 23.7882 5.51516
O 7.77533 23.008 4.55924
O -0.406072 26.4393 8.60448
Si -0.0638371 28.049 8.59406
Si -0.142961 24.8232 8.58716
O 3.35693 26.2225 8.60437
Si 3.20187 27.8609 8.59415
Si 2.90986 24.6474 8.58713
O 4.07647 28.244 9.96739
O 1.59152 28.3456 8.59316
O 4.07685 28.244 7.22152
O 3.26763 24.072 10.051
O 1.36426 24.4022 8.26121
O 3.66161 24.0146 7.30511
O -4.99108 25.9758 5.85858
Si -4.93306 27.6205 5.8482
Si -4.45165 24.4298 5.84122
O -1.24728 26.4145 5.85865
Si -1.68413 28.0011 5.84814
Si -1.41455 24.7857 5.84126
O -0.889186 28.53 7.22146
O -3.35412 28.1994 5.84719
O -0.88861 28.53 4.47555
O -0.962381 24.2809 7.3051
O -2.89428 24.2765 5.51523
O -0.564576 24.2927 4.55922
O -9.42616 24.7244 8.60434
Si -9.65427 26.3542 8.5941
Si -8.62679 23.2954 8.58714
O -5.81522 25.8055 8.60461
Si -6.52052 27.2924 8.59412
Si -5.69744 24.1724 8.58714
O -5.8292 27.9511 9.96737
O -8.19961 27.1981 8.59315
O -5.82881 27.9511 7.22147
O -5.16464 23.7537 10.051
O -7.06643 23.4143 8.26108
O -4.77482 23.8343 7.30513
O -13.5768 22.7226 5.85859
Si -14.0842 24.2881 5.84831
Si -12.5417 21.454 5.84125
O -10.2082 24.4138 5.85882
Si -11.1608 25.7558 5.84821
Si -9.80899 22.8259 5.84123
O -10.5943 26.5244 7.22154
O -12.7981 25.3716 5.84727
O -10.5938 26.5245 4.47555
O -9.21183 22.5059 7.30515
O -11.0257 21.8419 5.51493
O -8.84166 22.653 4.55927
O -17.3174 20.0309 8.60455
Si -18.0886 21.4846 8.59421
Si -16.0776 18.9614 8.58723
O -14.2929 22.2813 8.60476
Si -15.4641 23.4375 8.59424
Si -13.6244 20.7867 8.58717
O -15.0395 24.2927 9.96755
O -17.0099 22.7749 8.59329
O -15.0391 24.2929 7.22157
O -12.9809 20.5749 10.0511
O -14.6522 19.6068 8.26061
O -12.6417 20.7841 7.30524
O -20.5332 16.7305 5.85873
Si -21.5453 18.0282 5.84835
Si -19.1265 15.8927 5.84134
O -17.9457 19.4722 5.85881
Si -19.2999 20.4073 5.84831
Si -17.0278 18.1163 5.84132
O -19.0301 21.3233 7.22156
O -20.7071 19.4862 5.84747
O -19.0298 21.3236 4.47565
O -16.3575 18.0194 7.30533
O -17.835 16.7759 5.51447
O -16.0596 18.2845 4.55943
O -23.1267 12.9214 8.60477
Si -24.3488 14.0235 8.5943
Si -21.5957 12.341 8.58728
O -21.0548 16.0712 8.60483
Si -22.551 16.7567 8.59427
Si -19.9153 14.8955 8.58725
O -22.4445 17.7056 9.96755
O -23.7767 15.6051 8.59334
O -22.4442 17.7059 7.22158
O -19.2385 14.9163 10.0513
O -20.4775 13.4354 8.26015
O -18.9909 15.2294 7.30547
O -25.0181 8.71964 5.85895
Si -26.4134 9.59237 5.84842
Si -23.4095 8.41429 5.8414
O -23.5256 12.1815 5.85891
Si -25.1181 12.5965 5.84839
Si -22.1989 11.2219 5.84137
O -25.1782 13.5495 7.22167
O -26.1249 11.2493 5.84741
O -25.178 13.5499 4.47578
O -21.5362 11.36 7.30547
O -22.4986 9.68631 5.5143
O -21.3468 11.7116 4.55958
O -26.1497 4.25281 8.60494
Si -27.6754 4.86953 8.59442
Si -24.5125 4.2319 8.58732
O -25.2823 7.92167 8.60467
Si -26.9227 8.05321 8.59433
Si -23.809 7.20737 8.58731
O -27.1477 8.98124 9.96763
O -27.6797 6.55136 8.59342
O -27.1475 8.98171 7.2217
O -23.1804 7.45865 10.0514
O -23.8368 5.64304 8.26032
O -23.0549 7.83771 7.30551
O -26.487 -0.342765 5.85887
Si -28.0968 -0.000757366 5.84844
Si -24.8711 -0.0787209 5.84142
O -26.271 3.42091 5.85872
Si -27.9093 3.26527 5.8485
Si -24.6958 2.97382 5.84139
O -28.2922 4.14 7.2218
O -28.3936 1.65469 5.8476
O -28.2922 4.14046 4.47586
O -24.1206 3.33072 7.30546
O -24.4511 1.42845 5.51443
O -24.063 3.72565 4.55955
O -26.0196 -4.92695 8.60475
Si -27.6644 -4.87013 8.59431
Si -24.4742 -4.38605 8.58736
O -26.4617 -1.18318 8.60463
Si -28.048 -1.62124 8.59434
Si -24.8328 -1.34957 8.58733
O -28.5773 -0.826346 9.96758
O -28.2446 -3.29156 8.5934
O -28.5773 -0.82598 7.22171
O -24.3284 -0.89803 10.0514
O -24.3228 -2.82877 8.2605
O -24.3404 -0.499065 7.30548
O -24.7622 -9.36032 5.85878
Si -26.3918 -9.59014 5.84834
Si -23.3344 -8.55892 5.84141
O -25.8485 -5.75009 5.85873
Si -27.3344 -6.45741 5.84839
Si -24.2155 -5.63097 5.84145
O -27.9939 -5.76677 7.22166
O -27.2376 -8.13645 5.84744
O -27.994 -5.76636 4.47576
O -23.7973 -5.0985 7.3055
O -23.4562 -6.99901 5.51455
O -23.8785 -4.70785 4.55958
O -22.7535 -13.5075 8.60464
Si -24.3184 -14.0171 8.59425
Si -21.4865 -12.4703 8.58724
O -24.4505 -10.1414 8.60461
Si -25.791 -11.096 8.59425
Si -22.8631 -9.74003 8.58732
O -26.5605 -10.5304 9.96749
O -25.404 -12.7326 8.59338
O -26.5606 -10.53 7.22161
O -22.5439 -9.14293 10.0514
O -21.8774 -10.9552 8.26054
O -22.6917 -8.77233 7.30545
O -20.0552 -17.2427 5.85869
Si -21.5077 -18.0163 5.84832
Si -18.9875 -16.0014 5.84124
O -22.3108 -14.2225 5.85864
Si -23.4652 -15.3954 5.84833
Si -20.8172 -13.5516 5.84132
O -24.3212 -14.9722 7.22157
O -22.7999 -16.94 5.84742
O -24.3214 -14.972 4.47567
O -20.6066 -12.9081 7.30539
O -19.6354 -14.5771 5.51463
O -20.8165 -12.5689 4.55942
O -16.7495 -20.4529 8.60444
Si -18.0457 -21.4669 8.59421
Si -15.9134 -19.0451 8.58712
O -19.4948 -17.8702 8.6045
Si -20.4282 -19.2256 8.59422
Si -18.1405 -16.95 8.58715
O -21.3447 -18.9575 9.96751
O -19.505 -20.6312 8.5932
O -21.345 -18.9572 7.22163
O -18.045 -16.2796 10.0512
O -16.7984 -17.7547 8.26074
O -18.3104 -15.9822 7.30518
O -12.937 -23.0409 5.85866
Si -14.0375 -24.2646 5.84821
Si -12.3577 -21.5095 5.8412
O -16.0886 -20.9737 5.85865
Si -16.7727 -22.4705 5.8483
Si -14.9145 -19.8325 5.84121
O -17.7217 -22.3655 7.2216
O -15.6197 -23.6948 5.84717
O -17.7222 -22.3652 4.47571
O -14.9369 -19.1555 7.30518
O -13.4532 -20.392 5.51501
O -15.2498 -18.9088 4.55923
O -8.73308 -24.9288 8.6046
Si -9.60469 -26.3248 8.59409
Si -8.42834 -23.32 8.58715
O -12.1958 -23.4394 8.60439
Si -12.6097 -25.0322 8.59412
Si -11.2374 -22.1119 8.58711
O -13.5626 -25.0934 9.96743
O -11.2618 -26.0379 8.5931
O -13.5631 -25.0932 7.22153
O -11.3769 -21.449 10.051
O -9.70113 -22.4096 8.26101
O -11.7277 -21.2603 7.3051
O -4.2656 -26.0593 5.85839
Si -4.88194 -27.5852 5.84811
Si -4.24439 -24.4221 5.84127
O -7.93379 -25.1928 5.85839
Si -8.06549 -26.8332 5.84816
Si -7.22034 -23.719 5.84123
O -8.99334 -27.0586 7.22144
O -6.56368 -27.59 5.84721
O -8.99378 -27.0586 4.47554
O -7.47295 -23.0903 7.30512
O -5.65564 -23.7457 5.5154
O -7.85092 -22.9654 4.55921
O 0.330229 -26.3978 8.6044
Si -0.0121451 -28.0075 8.59402
Si 0.067187 -24.7817 8.58722
O -3.43281 -26.1806 8.60428
Si -3.27788 -27.819 8.59402
Si -2.98555 -24.6055 8.58718
O -4.15266 -28.202 9.96724
O -1.66756 -28.3038 8.59316
O -4.15293 -28.2019 7.22135
O -3.3433 -24.0301 10.0511
O -1.43996 -24.3605 8.26129
O -3.73718 -23.9727 7.30514
O 4.9151 -25.9343 5.85826
Si 4.85708 -27.579 5.84812
Si 4.37575 -24.3883 5.84124
O 1.17157 -26.373 5.8583
Si 1.60819 -27.9597 5.84809
Si 1.33874 -24.7442 5.84129
O 0.813054 -28.4885 7.22133
O 3.27819 -28.158 5.84721
O 0.812707 -28.4886 4.47544
O 0.88658 -24.2395 7.30516
O 2.81838 -24.2347 5.51534
O 0.488731 -24.2512 4.55926
O 9.3499 -24.6827 8.60454
Si 9.57802 -26.3125 8.59407
Si 8.55052 -23.2537 8.58713
O 5.73906 -25.7642 8.60446
Si 6.44448 -27.251 8.59406
Si 5.62138 -24.1311 8.58717
O 5.75314 -27.9097 9.96728
O 8.12353 -27.1566 8.5932
O 5.75292 -27.9097 7.22131
O 5.08879 -23.7123 10.0511
O 6.99027 -23.3729 8.2609
O 4.69878 -23.7929 7.30518
O 13.5004 -22.6805 5.8588
Si 14.0078 -24.2461 5.84817
Si 12.4651 -21.412 5.84124
O 10.1317 -24.3721 5.85853
Si 11.0844 -25.714 5.84816
Si 9.73251 -22.7842 5.8412
O 10.5179 -26.4826 7.22142
O 12.7216 -25.3296 5.84725
O 10.5176 -26.4828 4.4755
O 9.13545 -22.4641 7.30514
O 10.9492 -21.8003 5.5148
O 8.76522 -22.6112 4.55922
O 17.2401 -19.9883 8.60436
Si 18.0117 -21.4419 8.59413
Si 16.0003 -18.9188 8.58711
O 14.2163 -22.239 8.60438
Si 15.3875 -23.3952 8.59407
Si 13.5475 -20.7445 8.58712
O 14.9629 -24.2505 9.96732
O 16.9332 -22.7324 8.59316
O 14.9627 -24.2507 7.22142
O 12.9042 -20.5329 10.0511
O 14.5749 -19.5643 8.26062
O 12.5648 -20.7421 7.30519
O 20.4557 -16.6874 5.85756
Si 21.4679 -17.985 5.84828
Si 19.0489 -15.8497 5.84127
O 17.8686 -19.4292 5.8587
Si 19.2228 -20.3644 5.84825
Si 16.9504 -18.0736 5.84121
O 18.9532 -21.2805 7.22148
O 20.6299 -19.4432 5.84748
O 18.9529 -21.2806 4.47555
O 16.2801 -17.9768 7.30519
O 17.7574 -16.733 5.51454
O 15.9822 -18.242 4.55936
O 23.0486 -12.878 8.60422
Si 24.2709 -13.9799 8.5943
Si 21.5177 -12.2974 8.58729
O 20.9774 -16.0276 8.6053
Si 22.4734 -16.7133 8.59424
Si 19.8376 -14.8521 8.58725
O 22.3671 -17.6624 9.96745
O 23.699 -15.5616 8.59329
O 22.3666 -17.6626 7.22156
O 19.1606 -14.8732 10.0513
O 20.3993 -13.3917 8.26057
O 18.9135 -15.1864 7.30537
O 24.94 -8.67586 5.85921
Si 26.3352 -9.54861 5.84838
Si 23.3314 -8.37022 5.84133
O 23.4477 -12.1377 5.85872
Si 25.0402 -12.5528 5.84839
Si 22.121 -11.1781 5.8414
O 25.1004 -13.5058 7.2217
O 26.0469 -11.2055 5.84736
O 25.1001 -13.5062 4.47576
O 21.4582 -11.3164 7.30544
O 22.4205 -9.64236 5.51442
O 21.2689 -11.6678 4.55958
O 26.0719 -4.20895 8.60503
Si 27.5975 -4.82597 8.59428
Si 24.4347 -4.18765 8.58732
O 25.2042 -7.87759 8.6041
Si 26.8446 -8.00953 8.59427
Si 23.731 -7.16312 8.5872
O 27.0695 -8.9375 9.9676
O 27.6017 -6.50779 8.59334
O 27.0695 -8.93809 7.22168
O 23.1025 -7.41447 10.0513
O 23.7588 -5.59876 8.26029
O 22.9769 -7.79335 7.30536
O 26.4097 0.386688 5.85871
Si 28.0193 0.0442994 5.84827
Si 24.7937 0.122906 5.84144
O 26.1932 -3.37706 5.85839
Si 27.8315 -3.22174 5.84834
Si 24.6182 -2.92958 5.84139
O 28.2144 -4.09658 7.2216
O 28.3159 -1.61118 5.84739
O 28.2144 -4.09699 4.47572
O 24.0429 -3.28639 7.30547
O 24.3735 -1.38423 5.51451
O 23.9851 -3.68125 4.55952
O 25.9432 4.971 14.0963
Si 27.5878 4.91357 14.0861
Si 24.3977 4.43019 14.0792
O 26.3844 1.22683 14.0967
Si 27.9708 1.66468 14.086
Si 24.7556 1.39366 14.0792
O 28.5 0.869831 15.4593
O 28.1677 3.33492 14.0851
O 28.5 0.869432 12.7134
O 24.251 0.942221 15.5432
O 24.246 2.87297 13.7523
O 24.263 0.54337 12.7973
O 24.6866 9.40399 11.3503
Si 26.3162 9.63369 11.3402
Si 23.2586 8.60301 11.3333
O 25.772 5.794 11.3508
Si 27.2582 6.50085 11.3402
Si 24.139 5.67496 11.3333
O 27.9176 5.8101 12.7134
O 27.1618 8.17992 11.3392
O 27.9177 5.80965 9.96756
O 23.7208 5.14251 12.7974
O 23.3797 7.04303 11.0066
O 23.8019 4.75199 10.0514
O 22.6785 13.5515 14.0965
Si 24.2434 14.0609 14.0861
Si 21.4114 12.5145 14.0792
O 24.375 10.1851 14.0968
Si 25.7157 11.1396 14.0861
Si 22.7875 9.78401 14.0792
O 26.4851 10.574 15.4594
O 25.3288 12.7763 14.0851
O 26.4852 10.5734 12.7135
O 22.4682 9.18698 15.5433
O 21.802 10.9993 13.7525
O 22.616 8.81644 12.7973
O 19.9802 17.287 11.3504
Si 21.4328 18.0606 11.3401
Si 18.9125 16.0457 11.3333
O 22.2357 14.2668 11.3506
Si 23.3902 15.4395 11.3402
Si 20.7422 13.5958 11.3333
O 24.2462 15.0162 12.7135
O 22.725 16.9842 11.3392
O 24.2465 15.0158 9.9676
O 20.5316 12.9522 12.7973
O 19.5603 14.6213 11.0067
O 20.7414 12.6131 10.0514
O 16.674 20.4973 14.0965
Si 17.9702 21.5112 14.086
Si 15.8381 19.0893 14.0791
O 19.4199 17.9145 14.0967
Si 20.3531 19.27 14.086
Si 18.0655 16.9944 14.0792
O 21.2697 19.0019 15.4593
O 19.4297 20.6756 14.0851
O 21.2699 19.0015 12.7134
O 17.9699 16.324 15.5432
O 16.7235 17.7991 13.7526
O 18.2355 16.0266 12.7972
O 12.861 23.0848 11.3505
Si 13.9614 24.3085 11.3401
Si 12.2822 21.5532 11.3331
O 16.0132 21.0179 11.3506
Si 16.697 22.5148 11.3401
Si 14.8392 19.8765 11.3332
O 17.6462 22.4098 12.7134
O 15.5437 23.7388 11.3393
O 17.6464 22.4096 9.96747
O 14.8616 19.1996 12.7972
O 13.3779 20.4361 11.0068
O 15.1746 18.9529 10.0512
O 8.65717 24.9716 14.0963
Si 9.52852 26.3677 14.0861
Si 8.35259 23.3628 14.079
O 12.12 23.483 14.0961
Si 12.5337 25.0759 14.086
Si 11.1618 22.1553 14.0791
O 13.4866 25.1372 15.4593
O 11.1856 26.0813 14.0852
O 13.4869 25.1371 12.7133
O 11.3014 21.4924 15.543
O 9.62548 22.4526 13.7529
O 11.6523 21.3038 12.7971
O 4.18953 26.1013 11.3504
Si 4.80576 27.6273 11.3401
Si 4.16866 24.4641 11.333
O 7.85808 25.2354 11.3504
Si 7.98937 26.8758 11.3401
Si 7.1447 23.7616 11.3331
O 8.91712 27.1015 12.7134
O 6.48744 27.6323 11.3392
O 8.91748 27.1014 9.96748
O 7.39725 23.1329 12.797
O 5.58005 23.7882 11.007
O 7.77534 23.008 10.0511
O -0.406072 26.4393 14.0963
Si -0.0638371 28.049 14.0859
Si -0.142961 24.8232 14.079
O 3.35693 26.2225 14.0962
Si 3.20187 27.8609 14.086
Si 2.90986 24.6474 14.079
O 4.07647 28.244 15.4592
O 1.59152 28.3456 14.085
O 4.07685 28.244 12.7133
O 3.26763 24.072 15.5428
O 1.36426 24.4022 13.753
O 3.66161 24.0146 12.7969
O -4.99108 25.9758 11.3504
Si -4.93306 27.6205 11.34
Si -4.45165 24.4298 11.333
O -1.24728 26.4145 11.3505
Si -1.68413 28.0011 11.34
Si -1.41455 24.7857 11.3331
O -0.889186 28.53 12.7133
O -3.35412 28.1994 11.339
O -0.88861 28.53 9.96737
O -0.96238 24.2809 12.7969
O -2.89428 24.2765 11.0071
O -0.564576 24.2927 10.051
O -9.42616 24.7244 14.0962
Si -9.65427 26.3542 14.0859
Si -8.62679 23.2954 14.079
O -5.81522 25.8055 14.0964
Si -6.52052 27.2924 14.0859
Si -5.69744 24.1724 14.079
O -5.8292 27.9511 15.4592
O -8.19961 27.1981 14.085
O -5.82881 27.9511 12.7133
O -5.16464 23.7537 15.5428
O -7.06643 23.4143 13.7529
O -4.77482 23.8343 12.797
O -13.5768 22.7226 11.3504
Si -14.0842 24.2881 11.3401
Si -12.5417 21.454 11.3331
O -10.2082 24.4138 11.3506
Si -11.1608 25.7558 11.34
Si -9.80899 22.8259 11.3331
O -10.5943 26.5244 12.7134
O -12.7981 25.3716 11.3391
O -10.5938 26.5245 9.96738
O -9.21183 22.5059 12.797
O -11.0257 21.8419 11.0068
O -8.84166 22.653 10.0511
O -17.3174 20.0309 14.0964
Si -18.0886 21.4846 14.086
Si -16.0776 18.9614 14.0791
O -14.2929 22.2813 14.0966
Si -15.4641 23.4375 14.0861
Si -13.6244 20.7867 14.079
O -15.0395 24.2927 15.4594
O -17.0099 22.7749 14.0851
O -15.0391 24.2929 12.7134
O -12.9809 20.5749 15.5429
O -14.6522 19.6068 13.7524
O -12.6417 20.7841 12.7971
O -20.5332 16.7305 11.3506
Si -21.5453 18.0282 11.3402
Si -19.1265 15.8927 11.3332
O -17.9457 19.4722 11.3506
Si -19.2999 20.4073 11.3401
Si -17.0278 18.1163 11.3331
O -19.0301 21.3233 12.7134
O -20.7071 19.4862 11.3393
O -19.0298 21.3236 9.96747
O -16.3575 18.0194 12.7972
O -17.835 16.7759 11.0063
O -16.0596 18.2845 10.0513
O -23.1267 12.9214 14.0966
Si -24.3488 14.0235 14.0861
Si -21.5957 12.341 14.0791
O -21.0548 16.0712 14.0967
Si -22.551 16.7567 14.0861
Si -19.9153 14.8955 14.0791
O -22.4445 17.7056 15.4594
O -23.7767 15.6051 14.0852
O -22.4442 17.7059 12.7134
O -19.2385 14.9163 15.5431
O -20.4775 13.4354 13.752
O -18.9909 15.2294 12.7973
O -25.0181 8.71964 11.3508
Si -26.4134 9.59237 11.3402
Si -23.4095 8.41429 11.3332
O -23.5256 12.1815 11.3507
Si -25.1181 12.5965 11.3402
Si -22.1989 11.2219 11.3332
O -25.1782 13.5495 12.7135
O -26.1249 11.2493 11.3392
O -25.178 13.5499 9.9676
O -21.5362 11.36 12.7973
O -22.4986 9.68631 11.0061
O -21.3468 11.7116 10.0514
O -26.1497 4.25281 14.0968
Si -27.6754 4.86953 14.0862
Si -24.5125 4.2319 14.0791
O -25.2823 7.92167 14.0965
Si -26.9227 8.05321 14.0862
Si -23.809 7.20737 14.0791
O -27.1477 8.98124 15.4595
O -27.6797 6.55136 14.0852
O -27.1475 8.98171 12.7135
O -23.1804 7.45865 15.5432
O -23.8368 5.64304 13.7521
O -23.0549 7.83771 12.7973
O -26.487 -0.342765 11.3507
Si -28.0968 -0.000757158 11.3403
Si -24.8711 -0.078721 11.3332
O -26.271 3.42091 11.3505
Si -27.9093 3.26527 11.3403
Si -24.6958 2.97382 11.3332
O -28.2922 4.14 12.7136
O -28.3936 1.65469 11.3394
O -28.2922 4.14046 9.96769
O -24.1206 3.33072 12.7973
O -24.4511 1.42845 11.0063
O -24.063 3.72565 10.0514
O -26.0196 -4.92695 14.0966
Si -27.6644 -4.87013 14.0861
Si -24.4742 -4.38605 14.0792
O -26.4617 -1.18318 14.0965
Si -28.048 -1.62124 14.0862
Si -24.8328 -1.34957 14.0792
O -28.5773 -0.826346 15.4594
O -28.2446 -3.29156 14.0852
O -28.5773 -0.82598 12.7135
O -24.3284 -0.89803 15.5432
O -24.3228 -2.82877 13.7523
O -24.3404 -0.499065 12.7973
O -24.7622 -9.36032 11.3506
Si -26.3918 -9.59014 11.3402
Si -23.3344 -8.55892 11.3332
O -25.8485 -5.75009 11.3506
Si -27.3344 -6.45741 11.3402
Si -24.2155 -5.63097 11.3333
O -27.9939 -5.76677 12.7135
O -27.2376 -8.13645 11.3393
O -27.994 -5.76636 9.96759
O -23.7973 -5.0985 12.7973
O -23.4562 -6.99901 11.0064
O -23.8785 -4.70785 10.0514
O -22.7535 -13.5075 14.0965