3312
 Atoms. Timestep: 10309
O -26.9685 -62.5469 2.54031
Si -27.8548 -63.9341 2.54024
Si -26.5327 -60.9637 2.54022
O -30.2819 -61.0222 2.54006
Si -30.7596 -62.5975 2.54016
Si -29.3624 -59.6616 2.54012
O -31.6873 -62.7026 3.90418
O -29.4826 -63.6469 2.54022
O -31.6873 -62.7026 1.17612
O -29.762 -58.8712 3.90415
O -27.7654 -59.9168 2.54027
O -29.7619 -58.8713 1.17603
O -22.6344 -64.2295 -0.18765
Si -23.4239 -65.674 -0.187729
Si -22.3076 -62.6202 -0.187702
O -26.0441 -62.9344 -0.187958
Si -26.4131 -64.5387 -0.187835
Si -25.2197 -61.5142 -0.187858
O -27.3313 -64.7071 1.1762
O -25.0674 -65.4985 -0.187785
O -27.3313 -64.7071 3.90428
O -25.6724 -60.753 1.17619
O -23.6089 -61.6598 -0.187742
O -25.6723 -60.753 3.90419
O 0.187224 -68.0486 2.54105
Si -0.0742527 -69.6738 2.54066
Si -0.042375 -66.4225 2.54067
O -3.45911 -67.967 2.5405
Si -3.27083 -69.6024 2.5406
Si -3.15676 -66.3529 2.54062
O -4.07988 -70.068 3.90463
O -1.6819 -70.0575 2.54062
O -4.07991 -70.068 1.17658
O -3.8381 -65.7868 3.90466
O -1.58981 -65.952 2.54066
O -3.83814 -65.7868 1.1766
O 4.83321 -67.8713 -0.187227
Si 4.68265 -69.5106 -0.187325
Si 4.49373 -66.2646 -0.187347
O 1.18976 -68.0369 -0.187833
Si 1.48859 -69.6558 -0.187422
Si 1.38174 -66.406 -0.187445
O 0.713039 -70.1751 1.1766
O 3.10467 -70.0023 -0.187343
O 0.713063 -70.1752 3.9047
O 0.663552 -65.8875 1.17659
O 2.91793 -65.9 -0.187298
O 0.663641 -65.8874 3.90466
O 27.2967 -62.3203 2.54108
Si 27.7018 -63.9158 2.5411
Si 26.4405 -60.919 2.54109
O 23.9173 -63.6925 2.5412
Si 24.7393 -65.1188 2.54116
Si 23.5542 -62.091 2.54118
O 24.1815 -65.8672 3.9052
O 26.3784 -64.906 2.54111
O 24.1815 -65.8672 1.17715
O 22.7042 -61.8417 3.90522
O 24.8334 -61.1012 2.54118
O 22.7042 -61.8417 1.17712
O 46.6174 -49.588 -0.186347
Si 32.0031 -61.8775 -0.187013
Si 30.5409 -58.9733 -0.18702
O 28.2122 -61.9118 -0.186981
Si 29.1292 -63.2789 -0.186981
Si 27.741 -60.3387 -0.186986
O 28.6235 -64.0634 1.17707
O 30.7501 -62.9553 -0.186988
O 28.6235 -64.0634 3.90513
O 26.876 -60.1477 1.177
O 28.9499 -59.2643 -0.186902
O 26.8761 -60.1477 3.90511
O 49.8973 -46.2928 2.5417
Si 50.904 -47.5953 2.54132
Si 48.554 -45.3482 2.54132
O 47.3434 -48.8968 2.54077
Si 48.665 -49.8781 2.54125
Si 46.3729 -47.5721 2.54123
O 48.4508 -50.7867 3.9053
O 50.0841 -49.0305 2.54129
O 48.4509 -50.7868 1.17721
O 45.4942 -47.6814 3.90534
O 47.1524 -46.155 2.54118
O 45.494 -47.6813 1.17724
O 62.5387 -26.9136 -0.186711
Si 54.0376 -44.0118 -0.186696
Si 60.9566 -26.4734 -0.186851
O 50.5742 -45.5536 -0.187189
Si 51.9599 -46.4423 -0.186774
Si 49.5156 -44.2982 -0.1868
O 51.8083 -47.3635 1.17724
O 53.3177 -45.4996 -0.186715
O 51.8084 -47.3635 3.90537
O 48.6464 -44.4674 1.17731
O 50.1964 -42.8312 -0.186876
O 48.6462 -44.4674 3.90536
O 64.234 -22.5844 2.54059
Si 65.6763 -23.378 2.54081
Si 62.6256 -22.2531 2.54079
O 62.929 -25.9903 2.54117
Si 64.5322 -26.3637 2.54116
Si 61.5111 -25.1619 2.54121
O 64.698 -27.2823 3.90523
O 65.496 -25.021 2.54096
O 64.698 -27.2825 1.17718
O 60.7486 -25.6123 3.90536
O 61.6614 -23.5516 2.54085
O 60.7484 -25.6127 1.17729
O 68.1205 0.224955 -0.188591
Si 67.1236 -18.8434 -0.187604
Si 66.4939 -0.000529972 -0.188537
O 64.5606 -21.6367 -0.187072
Si 66.1855 -21.9001 -0.18727
Si 63.0895 -20.9069 -0.187273
O 66.4135 -22.8053 1.17677
O 67.0556 -20.4948 -0.187438
O 66.4135 -22.8053 3.90486
O 62.3594 -21.4083 1.17677
O 63.1299 -19.2901 -0.187411
O 62.3594 -21.4084 3.90485
O 67.9542 4.87117 2.53944
Si 69.5931 4.71677 2.53943
Si 66.3467 4.53543 2.53943
O 68.1114 1.22731 2.53961
Si 69.731 1.52233 2.53954
Si 66.481 1.4233 2.53954
O 70.2484 0.745411 3.90359
O 70.0812 3.13764 2.53947
O 70.2484 0.745381 1.1755
O 65.9606 0.706448 3.90349
O 65.9785 2.96058 2.53973
O 65.9606 0.706792 1.17541
O 67.4718 9.49528 -0.188549
Si 69.1174 9.45296 -0.188743
Si 65.8909 9.05077 -0.188763
O 67.8769 5.87058 -0.188668
Si 69.4725 6.27529 -0.188659
Si 66.2369 5.95503 -0.188645
O 70.0417 5.5354 1.17537
O 69.7119 7.9107 -0.188707
O 70.0417 5.5354 3.90347
O 65.7665 5.20444 1.17531
O 65.6309 7.45451 -0.188455
O 65.7665 5.20476 3.90339
O 66.6755 14.0758 2.53937
Si 68.3202 14.1458 2.53932
Si 65.1286 13.5246 2.5393
O 67.3266 10.4871 2.53901
Si 68.891 10.9996 2.53929
Si 65.6847 10.4596 2.53929
O 69.5091 10.3002 3.90333
O 69.0184 12.6476 2.53935
O 69.5093 10.3003 1.17527
O 65.2665 9.67865 3.90322
O 64.9779 11.9143 2.53957
O 65.2664 9.67902 1.17518
O 65.5687 18.5914 -0.188606
Si 67.2048 18.7734 -0.188646
Si 64.0631 17.9359 -0.188618
O 66.4631 15.0555 -0.188883
Si 67.9888 15.6735 -0.188761
Si 64.8269 14.916 -0.188784
O 68.6533 15.0178 1.17528
O 68.0035 17.3263 -0.188702
O 68.6533 15.0179 3.90333
O 64.4629 14.1084 1.17514
O 64.0225 16.3191 -0.188559
O 64.4628 14.1087 3.90328
O 64.1562 23.0209 2.53937
Si 65.7761 23.3142 2.53941
Si 62.6989 22.2641 2.53941
O 65.2899 19.5543 2.53944
Si 66.7699 20.275 2.53943
Si 63.667 19.3034 2.53946
O 67.4776 19.6663 3.90349
O 66.6717 21.925 2.53941
O 67.4776 19.6662 1.17539
O 63.359 18.473 3.90348
O 62.7688 20.6483 2.53947
O 63.359 18.4731 1.17541
O 62.4442 27.3435 -0.188759
Si 64.0402 27.7469 -0.188704
Si 61.042 26.4888 -0.188706
O 63.8123 23.9625 -0.188645
Si 65.2395 24.7828 -0.18866
Si 62.2104 23.6013 -0.188671
O 65.9872 24.2237 1.17541
O 65.0287 26.4222 -0.188682
O 65.9872 24.2237 3.90343
O 61.9597 22.7519 1.17535
O 61.2223 24.8816 -0.188687
O 61.9597 22.7519 3.90344
O 60.4404 31.5389 2.53923
Si 62.0051 32.0505 2.53939
Si 59.1001 30.5902 2.53942
O 62.0367 28.2593 2.53939
Si 63.4045 29.1753 2.53937
Si 60.4632 27.7895 2.53937
O 64.1886 28.6686 3.9034
O 63.0819 30.7965 2.53938
O 64.1886 28.6686 1.17533
O 60.2712 26.9249 3.9034
O 59.3898 28.9991 2.53932
O 60.2713 26.9249 1.17535
O 58.1542 35.5872 -0.188739
Si 59.6801 36.2049 -0.188768
Si 56.882 34.549 -0.188807
O 59.9712 32.4246 -0.188442
Si 61.2731 33.4322 -0.188686
Si 58.4336 31.8481 -0.188632
O 62.0901 32.9803 1.17538
O 60.8403 35.0275 -0.188756
O 62.0901 32.9803 3.90342
O 58.3011 30.9725 1.17547
O 57.2799 32.9815 -0.188827
O 58.3013 30.9724 3.9035
O 55.5957 39.4693 2.5399
Si 57.0757 40.1901 2.53927
Si 54.3977 38.3463 2.53928
O 57.6254 36.4387 2.53927
Si 58.8552 37.5331 2.5393
Si 56.1309 35.7582 2.53926
O 59.7011 37.1383 3.90336
O 58.314 39.095 2.53925
O 59.7011 37.1383 1.17526
O 56.0588 34.8756 3.9033
O 54.9023 36.8098 2.53916
O 56.0589 34.8755 1.17527
O 52.7767 43.1665 -0.188632
Si 54.2037 43.9872 -0.188827
Si 51.6586 41.9638 -0.188762
O 55.0098 40.2825 -0.189503
Si 56.1615 41.4587 -0.188866
Si 53.5655 39.5011 -0.188858
O 57.0326 41.1227 1.17522
O 55.5143 42.9797 -0.188824
O 57.0327 41.1229 3.90325
O 53.5542 38.6157 1.17523
O 52.2675 40.4656 -0.18899
O 53.5541 38.6154 3.90336
O 49.7101 46.6611 2.53865
Si 51.0774 47.5778 2.53903
Si 48.6772 45.3846 2.53895
O 52.1361 43.9374 2.53922
Si 53.2044 45.1899 2.53924
Si 50.7489 43.0587 2.5393
O 54.0966 44.9147 3.90328
O 52.4542 46.6629 2.53916
O 54.0966 44.9147 1.17521
O 50.7983 42.1746 3.90342
O 49.3876 43.9318 2.539
O 50.7985 42.1743 1.17538
O 46.4109 49.937 -0.189405
Si 47.7121 50.9454 -0.18914
Si 45.4679 48.5926 -0.189132
O 49.018 47.3863 -0.188744
Si 49.9979 48.7091 -0.189016
Si 47.6945 46.4143 -0.189104
O 50.9069 48.4958 1.17499
O 49.1483 50.127 -0.189097
O 50.9068 48.4957 3.90309
O 47.8046 45.5357 1.17493
O 46.2765 47.1919 -0.18921
O 47.8047 45.5357 3.903
O 42.8948 52.979 2.53903
Si 44.1238 54.0742 2.5388
Si 42.0463 51.5731 2.53889
O 45.6707 50.613 2.53925
Si 46.5575 51.9999 2.53894
Si 44.4168 49.5526 2.53897
O 47.479 51.8495 3.90299
O 45.6127 53.3563 2.53881
O 47.479 51.8494 1.17491
O 44.5869 48.6836 3.90308
O 42.9489 50.2312 2.53867
O 44.5871 48.6835 1.17497
O 39.1786 55.773 -0.189525
Si 40.3297 56.9499 -0.189673
Si 38.4284 54.3123 -0.189716
O 42.1101 53.6027 -0.189302
Si 42.8997 55.0472 -0.189294
Si 40.9319 52.4589 -0.189212
O 43.8293 54.9603 1.17479
O 41.8643 56.3356 -0.18952
O 43.8294 54.9602 3.90286
O 41.1611 51.6037 1.17494
O 39.4209 53.0353 -0.189591
O 41.1614 51.6034 3.90302
O 35.2797 58.3059 2.53803
Si 36.3474 59.5589 2.53806
Si 34.6314 56.7972 2.53808
O 38.353 56.3415 2.53815
Si 39.0418 57.8367 2.53837
Si 37.2559 55.1196 2.53832
O 39.9751 57.8136 3.90245
O 37.9205 59.0512 2.53821
O 39.9751 57.8136 1.17434
O 37.5434 54.282 3.90236
O 35.709 55.5912 2.53828
O 37.5432 54.2819 1.17429
O 31.2164 60.5655 -0.190532
Si 32.1957 61.8887 -0.190369
Si 30.673 59.0159 -0.190357
O 34.4171 58.8165 -0.190009
Si 35.0018 60.3553 -0.190035
Si 33.4063 57.5222 -0.190007
O 35.9346 60.3962 1.174
O 33.7999 61.4901 -0.1902
O 35.9346 60.3962 3.9021
O 33.7506 56.7062 1.17399
O 31.8307 57.8867 -0.190006
O 33.7505 56.7063 3.9021
O 9.12493 67.4481 2.53713
Si 9.60439 69.0229 2.53721
Si 9.13199 65.806 2.53719
O 12.7266 66.8728 2.53737
Si 12.7617 68.5186 2.53725
Si 12.2082 65.3146 2.53727
O 13.6265 68.8702 3.90126
O 11.2492 69.185 2.53723
O 13.6265 68.8701 1.17323
O 12.8065 64.6613 3.90125
O 10.6013 65.13 2.53743
O 12.8063 64.6614 1.17317
O 4.49771 67.9022 -0.190672
Si 4.86899 69.506 -0.190746
Si 4.61639 66.2644 -0.190749
O 8.1301 67.5726 -0.19091
Si 8.05332 69.217 -0.190862
Si 7.71883 65.9828 -0.190885
O 8.89226 69.6264 1.17316
O 6.49908 69.7793 -0.190791
O 8.89221 69.6264 3.90123
O 8.36017 65.3716 1.17306
O 6.12824 65.6897 -0.190616
O 8.35984 65.3717 3.90114
O -18.511 65.444 2.53772
Si -18.696 67.0797 2.53788
Si -17.8526 63.9396 2.5379
O -14.9768 66.3456 2.53804
Si -15.5979 67.8701 2.5379
Si -14.834 64.7096 2.53795
O -14.9438 68.5361 3.90194
O -17.2507 67.8814 2.53788
O -14.9438 68.536 1.17389
O -14.0258 64.3475 3.90207
O -16.2357 63.9024 2.53776
O -14.0255 64.3476 1.17395
O -39.3835 55.4552 -0.190563
Si -23.234 65.6435 -0.190307
Si -22.1793 62.5678 -0.19034
O -19.4735 65.1633 -0.189953
Si -20.1966 66.6422 -0.190189
Si -19.22 63.5409 -0.190156
O -19.5892 67.351 1.17386
O -21.8463 66.5414 -0.190258
O -19.5891 67.3509 3.90193
O -18.3889 63.2344 1.17391
O -20.5635 62.6404 -0.190318
O -18.3887 63.2345 3.90201
O -43.0821 52.638 2.53755
Si -43.902 54.0654 2.53749
Si -41.8801 51.5191 2.5375
O -40.1969 54.8694 2.53744
Si -41.3726 56.0217 2.53748
Si -39.4161 53.4248 2.53748
O -41.0366 56.8926 3.90151
O -42.8939 55.3754 2.53749
O -41.0366 56.8927 1.17344
O -38.5304 53.4133 3.9015
O -40.3815 52.1272 2.5375
O -38.5305 53.4133 1.17345
O -58.2482 35.1629 -0.190268
Si -47.495 50.9429 -0.190589
Si -45.3041 48.5405 -0.19058
O -43.8537 51.9979 -0.190607
Si -45.1052 53.0673 -0.190587
Si -42.976 50.6101 -0.190583
O -44.8294 53.9592 1.17344
O -46.5789 52.3186 -0.190594
O -44.8294 53.9592 3.90154
O -42.0917 50.6591 1.17343
O -43.8505 49.2496 -0.190575
O -42.0917 50.6591 3.90155
O -60.5176 31.1049 2.53787
Si -61.8383 32.0875 2.53786
Si -58.9693 30.5577 2.53788
O -58.7608 34.3014 2.53768
Si -60.2982 34.8898 2.53774
Si -57.469 33.2876 2.53775
O -60.3372 35.8225 3.9018
O -61.4359 33.6907 2.53782
O -60.3372 35.8225 1.17367
O -56.6521 33.6301 3.90175
O -57.8373 31.7127 2.53797
O -56.6521 33.63 1.17366
O -67.4716 9.03557 -0.189635
Si -63.8896 27.792 -0.189996
Si -65.8294 9.03758 -0.189598
O -60.9702 30.2104 -0.19026
Si -62.5441 30.6926 -0.190205
Si -59.6122 29.2871 -0.190197
O -62.6466 31.6205 1.1738
O -63.5974 29.4188 -0.190106
O -62.6466 31.6205 3.90191
O -58.8206 29.6846 1.17379
O -59.8723 27.6908 -0.189952
O -58.8207 29.6844 3.90185
O -67.9388 4.40963 2.53847
Si -69.5415 4.78559 2.53845
Si -66.3006 4.52358 2.53841
O -67.5989 8.04109 2.53851
Si -69.2435 7.96916 2.53848
Si -66.0103 7.62513 2.53848
O -69.6504 8.8093 3.90251
O -69.8102 6.41648 2.53849
O -69.6504 8.80931 1.17445
O -65.3973 8.26442 3.90252
O -65.7217 6.03376 2.53854
O -65.3973 8.26437 1.17441
O -68.0901 -0.237325 -0.189304
Si -69.7146 0.0285225 -0.189447
Si -66.4635 -0.0121193 -0.189386
O -67.9982 3.40877 -0.189799
Si -69.6341 3.22503 -0.18963
Si -66.3849 3.10198 -0.189675
O -70.0973 4.03557 1.17439
O -70.0937 1.63735 -0.189526
O -70.0973 4.03549 3.90246
O -65.8169 3.78167 1.17431
O -65.9886 1.53395 -0.189493
O -65.8168 3.78147 3.90239
O -67.9246 -4.88381 2.53865
Si -69.5635 -4.72927 2.53865
Si -66.3171 -4.5483 2.53865
O -68.0812 -1.2399 2.53859
Si -69.7008 -1.53468 2.53863
Si -66.4508 -1.4361 2.53869
O -70.218 -0.757641 3.90267
O -70.0513 -3.14999 2.53863
O -70.2181 -0.757606 1.17461
O -65.9303 -0.71948 3.90274
O -65.9487 -2.97349 2.53864
O -65.9303 -0.719373 1.17469
O -67.443 -9.5083 -0.189456
Si -69.0886 -9.46584 -0.189434
Si -65.8621 -9.06398 -0.189455
O -67.8475 -5.88349 -0.189411
Si -69.4432 -6.28802 -0.189425
Si -66.2075 -5.96809 -0.189419
O -70.0122 -5.54795 1.17463
O -69.6828 -7.92345 -0.189422
O -70.0122 -5.54794 3.90267
O -65.737 -5.21766 1.17461
O -65.6018 -7.46771 -0.189373
O -65.737 -5.21767 3.90269
O -66.647 -14.0891 2.53868
Si -68.2917 -14.1591 2.53872
Si -65.1001 -13.5379 2.53875
O -67.2979 -10.5004 2.53857
Si -68.8623 -11.0128 2.53864
Si -65.656 -10.4729 2.53862
O -69.4805 -10.3132 3.90269
O -68.9897 -12.6608 2.5387
O -69.4805 -10.3132 1.17457
O -65.2378 -9.69207 3.9026
O -64.9493 -11.9276 2.53878
O -65.2377 -9.69223 1.17456
O -65.5401 -18.6049 -0.189317
Si -67.1762 -18.7871 -0.189297
Si -64.0345 -17.9493 -0.18933
O -66.4346 -15.0689 -0.189276
Si -67.9603 -15.687 -0.189345
Si -64.7984 -14.9294 -0.189314
O -68.6248 -15.0312 1.1747
O -67.9749 -17.3399 -0.189319
O -68.6248 -15.0312 3.90276
O -64.4343 -14.1219 1.17469
O -63.994 -16.3325 -0.189198
O -64.4343 -14.122 3.90278
O -64.127 -23.0344 2.53897
Si -65.7468 -23.328 2.5389
Si -62.6698 -22.2773 2.53886
O -65.2612 -19.5678 2.53873
Si -66.7411 -20.2889 2.53878
Si -63.6383 -19.3168 2.53875
O -67.4488 -19.6799 3.90282
O -66.6426 -21.9389 2.53885
O -67.4488 -19.68 1.17473
O -63.3304 -18.4863 3.90272
O -62.7399 -20.6616 2.53898
O -63.3303 -18.4866 1.17464
O -62.4139 -27.3568 -0.188899
Si -64.0098 -27.7606 -0.188972
Si -61.012 -26.5017 -0.188939
O -63.7828 -23.9761 -0.189297
Si -65.21 -24.7966 -0.189173
Si -62.181 -23.6145 -0.189217
O -65.9577 -24.2375 1.17489
O -64.9987 -26.436 -0.189067
O -65.9577 -24.2376 3.90289
O -61.9306 -22.7649 1.17475
O -61.1926 -24.8946 -0.189006
O -61.9305 -22.7651 3.90285
O -60.4086 -31.5515 2.53915
Si -61.973 -32.0637 2.53924
Si -59.0685 -30.6024 2.53927
O -62.0061 -28.2725 2.5391
Si -63.3736 -29.189 2.53911
Si -60.4327 -27.8022 2.53914
O -64.1579 -28.6824 3.90315
O -63.0504 -30.8101 2.53917
O -64.1579 -28.6824 1.17508
O -60.241 -26.9376 3.90318
O -59.3589 -29.0115 2.53918
O -60.241 -26.9375 1.17512
O -58.1204 -35.5989 -0.188712
Si -59.646 -36.2171 -0.188727
Si -56.8485 -34.5601 -0.188754
O -59.9389 -32.4372 -0.188681
Si -61.2404 -33.4451 -0.188821
Si -58.4015 -31.86 -0.188785
O -62.0576 -32.9936 1.17523
O -60.8068 -35.0403 -0.188793
O -62.0576 -32.9935 3.90328
O -58.2695 -30.9844 1.17524
O -57.2472 -32.9928 -0.18877
O -58.2696 -30.9843 3.90334
O -55.56 -39.4797 2.53986
Si -57.0397 -40.2011 2.5395
Si -54.3623 -38.3563 2.53954
O -57.591 -36.4502 2.53926
Si -58.8203 -37.5449 2.53935
Si -56.0968 -35.769 2.53932
O -59.6666 -37.1505 3.90341
O -58.2784 -39.1066 2.53941
O -59.6666 -37.1505 1.1753
O -56.0252 -34.8863 3.90335
O -54.8676 -36.82 2.53945
O -56.0251 -34.8864 1.17525
O -52.7396 -43.176 -0.188759
Si -54.1664 -43.9971 -0.18852
Si -51.6218 -41.9731 -0.188512
O -54.9735 -40.2928 -0.188883
Si -56.1249 -41.4693 -0.188584
Si -53.5295 -39.5108 -0.188572
O -56.9962 -41.1337 1.17546
O -55.4772 -42.9901 -0.188542
O -56.9963 -41.1337 3.90354
O -53.5186 -38.6253 1.17546
O -52.2311 -40.4751 -0.188471
O -53.5185 -38.6253 3.90358
O -49.6727 -46.6703 2.53953
Si -51.0398 -47.5873 2.5396
Si -48.6399 -45.3937 2.53954
O -52.0988 -43.9469 2.5398
Si -53.167 -45.1996 2.53957
Si -50.7118 -43.0679 2.53959
O -54.0592 -44.9246 3.90361
O -52.4166 -46.6725 2.53959
O -54.0592 -44.9245 1.17552
O -50.7616 -42.1836 3.90358
O -49.3504 -43.9409 2.53975
O -50.7615 -42.1838 1.1755
O -46.3736 -49.9465 -0.188192
Si -47.6747 -50.955 -0.188273
Si -45.4308 -48.602 -0.188225
O -48.9806 -47.3957 -0.188525
Si -49.9604 -48.7186 -0.188471
Si -47.6571 -46.4236 -0.18853
O -50.8694 -48.5052 1.17556
O -49.111 -50.1366 -0.188375
O -50.8693 -48.5052 3.90362
O -47.7674 -45.5447 1.17541
O -46.2392 -47.2013 -0.188228
O -47.7672 -45.545 3.90349
O -42.8577 -52.9887 2.53985
Si -44.0866 -54.084 2.53987
Si -42.0093 -51.5827 2.53986
O -45.6335 -50.6227 2.53981
Si -46.5203 -52.0096 2.53981
Si -44.3798 -49.5621 2.53984
O -47.4417 -51.8591 3.90384
O -45.5755 -53.366 2.53984
O -47.4417 -51.8591 1.17579
O -44.5499 -48.693 3.90384
O -42.9118 -50.2408 2.53993
O -44.5499 -48.693 1.17583
O -39.1413 -55.7823 -0.187919
Si -40.2922 -56.9593 -0.188068
Si -38.3913 -54.3214 -0.188073
O -42.073 -53.6124 -0.18822
Si -42.8625 -55.0569 -0.188194
Si -40.8949 -52.4684 -0.188214
O -43.7921 -54.97 1.17585
O -41.8268 -56.3452 -0.188129
O -43.792 -54.97 3.90389
O -41.1243 -51.613 1.17579
O -39.3839 -53.0446 -0.188067
O -41.1242 -51.6131 3.90386
O -35.2417 -58.3141 2.54049
Si -36.3092 -59.5673 2.54018
Si -34.5937 -56.8053 2.54025
O -38.3156 -56.3506 2.53983
Si -39.0041 -57.8458 2.54
Si -37.2187 -55.1285 2.53999
O -39.9375 -57.823 3.90403
O -37.8824 -59.0601 2.54006
O -39.9375 -57.823 1.17599
O -37.5063 -54.2909 3.90403
O -35.6716 -55.5997 2.54009
O -37.5062 -54.2909 1.17592
O -31.1777 -60.5723 -0.187901
Si -32.1568 -61.8957 -0.187918
Si -30.6346 -59.0226 -0.187951
O -34.3789 -58.8243 -0.188061
Si -34.9634 -60.3632 -0.187903
Si -33.3685 -57.5299 -0.18785
O -35.8961 -60.4045 1.17613
O -33.7612 -61.4977 -0.187916
O -35.8962 -60.4045 3.90426
O -33.7128 -56.7141 1.17625
O -31.7927 -57.8937 -0.187904
O -33.7129 -56.7139 3.90432
O 27.0075 62.541 2.53727
Si 27.8939 63.9282 2.53742
Si 26.5716 60.9578 2.53734
O 30.3207 61.0157 2.53783
Si 30.7986 62.591 2.5377
Si 29.401 59.6552 2.53773
O 31.7264 62.6959 3.90172
O 29.5217 63.6407 2.53759
O 31.7263 62.6958 1.17367
O 29.8005 58.8647 3.90168
O 27.8041 59.9107 2.5379
O 29.8002 58.8649 1.17359
O 22.6732 64.2233 -0.190936
Si 23.4625 65.6679 -0.19079
Si 22.3466 62.6139 -0.19084
O 26.0831 62.9286 -0.190686
Si 26.452 64.5329 -0.190669
Si 25.2587 61.5084 -0.190738
O 27.3704 64.7012 1.17335
O 25.1061 65.4926 -0.190676
O 27.3703 64.7012 3.90142
O 25.7117 60.7471 1.17312
O 23.648 61.6538 -0.190315
O 25.7111 60.7473 3.90121
O 18.2338 65.605 2.53696
Si 18.9227 67.1001 2.53724
Si 18.0178 63.9771 2.53728
O 21.7242 64.5466 2.53731
Si 21.9827 66.1723 2.53729
Si 20.9989 63.0733 2.53724
O 22.8873 66.4032 3.90128
O 20.5744 67.0377 2.53732
O 22.8873 66.4032 1.17325
O 21.5029 62.3448 3.90115
O 19.3819 63.1083 2.53763
O 21.5024 62.3451 1.17301
O 13.7107 66.6812 -0.190936
Si 14.2961 68.2197 -0.190836
Si 13.6061 65.0423 -0.190808
O 17.265 65.8628 -0.190536
Si 17.412 67.5024 -0.190795
Si 16.6418 64.3435 -0.190788
O 18.2988 67.7945 1.17319
O 15.9482 68.2699 -0.190822
O 18.2987 67.7944 3.90131
O 17.1943 63.6511 1.17319
O 15.0262 64.2683 -0.19059
O 17.194 63.6513 3.90118
O -18.1957 -65.6129 2.54044
Si -18.8847 -67.1079 2.54039
Si -17.9794 -63.9851 2.54039
O -21.6856 -64.5532 2.54033
Si -21.9443 -66.1789 2.54035
Si -20.9601 -63.08 2.54037
O -22.8489 -66.4095 3.90439
O -20.5364 -67.0448 2.54036
O -22.8489 -66.4095 1.17632
O -21.4637 -62.3515 3.90444
O -19.3431 -63.1156 2.54038
O -21.4637 -62.3515 1.17632
O -13.673 -66.6906 -0.187587
Si -14.2586 -68.229 -0.187628
Si -13.5681 -65.0518 -0.187631
O -17.227 -65.8712 -0.187745
Si -17.3743 -67.5108 -0.187686
Si -16.6036 -64.352 -0.18769
O -18.2611 -67.8025 1.17635
O -15.9107 -68.2787 -0.187657
O -18.2611 -67.8025 3.90443
O -17.1557 -63.6595 1.17636
O -14.988 -64.2773 -0.187653
O -17.1557 -63.6595 3.90441
O -9.08731 -67.4575 2.54057
Si -9.5668 -69.0323 2.54051
Si -9.0943 -65.8153 2.54051
O -12.689 -66.8823 2.5404
Si -12.7242 -68.5281 2.54045
Si -12.1704 -65.3241 2.54044
O -13.5891 -68.8795 3.90447
O -11.2117 -69.1945 2.54048
O -13.5891 -68.8795 1.17643
O -12.7685 -64.6708 3.90448
O -10.5636 -65.1394 2.54048
O -12.7685 -64.6708 1.1764
O -4.46011 -67.9106 -0.187332
Si -4.83144 -69.5144 -0.187472
Si -4.57874 -66.2727 -0.187446
O -8.09247 -67.5817 -0.187625
Si -8.01578 -69.226 -0.187563
Si -7.68121 -65.9918 -0.187564
O -8.85459 -69.6356 1.17647
O -6.46146 -69.7881 -0.187528
O -8.85459 -69.6356 3.90456
O -8.32241 -65.3808 1.1765
O -6.09069 -65.6983 -0.187529
O -8.32242 -65.3808 3.90453
O -0.149626 68.0405 2.53794
Si 0.111681 69.6658 2.53755
Si 0.0801359 66.4145 2.53756
O 3.49675 67.9589 2.53719
Si 3.30833 69.5942 2.53733
Si 3.19447 66.3447 2.53732
O 4.11747 70.0597 3.90137
O 1.7194 70.0494 2.53742
O 4.11746 70.0597 1.17328
O 3.87581 65.7785 3.9013
O 1.62754 65.944 2.53753
O 3.87559 65.7785 1.17324
O -4.79569 67.862 -0.190304
Si -4.64543 69.5013 -0.190402
Si -4.45577 66.2554 -0.190402
O -1.15212 68.0288 -0.190913
Si -1.45134 69.6476 -0.190566
Si -1.34388 66.3979 -0.190536
O -0.675806 70.167 1.1735
O -3.06756 69.9935 -0.190462
O -0.675802 70.1672 3.90156
O -0.62573 65.8795 1.17351
O -2.87989 65.8914 -0.190454
O -0.625756 65.8794 3.90157
O -9.41877 67.3677 2.53779
Si -9.38038 69.0134 2.53778
Si -8.97045 65.7879 2.53776
O -5.79499 67.782 2.53758
Si -6.20368 69.3767 2.53767
Si -5.87543 66.1418 2.53767
O -5.46523 69.9478 3.90171
O -7.83971 69.6119 2.53774
O -5.46523 69.9478 1.17363
O -5.12362 65.6735 3.90174
O -7.37345 65.532 2.53771
O -5.12361 65.6734 1.17361
O -13.9975 66.5603 -0.190193
Si -14.0711 68.2049 -0.190177
Si -13.4429 65.0147 -0.190133
O -10.4103 67.2199 -0.190315
Si -10.9264 68.7831 -0.190292
Si -10.3791 65.5781 -0.190314
O -10.2286 69.4031 1.17375
O -12.5746 68.9066 -0.190249
O -10.2286 69.4031 3.90181
O -9.59714 65.1619 1.17372
O -11.8322 64.8678 -0.190323
O -9.5971 65.1619 3.90182
O 9.45651 -67.3793 2.54101
Si 9.41767 -69.025 2.54092
Si 9.00868 -65.7994 2.54094
O 5.8326 -67.7919 2.54058
Si 6.24082 -69.3866 2.54075
Si 5.91348 -66.1517 2.54072
O 5.50218 -69.9574 3.90477
O 7.8767 -69.6227 2.54085
O 5.50223 -69.9574 1.1767
O 5.16174 -65.683 3.90469
O 7.41182 -65.5427 2.54093
O 5.16191 -65.6829 1.17667
O 14.0356 -66.5739 -0.18694
Si 14.1088 -68.2184 -0.187011
Si 13.4813 -65.0281 -0.186992
O 10.4482 -67.2322 -0.187215
Si 10.9638 -68.7955 -0.18715
Si 10.4173 -65.5903 -0.187143
O 10.2657 -69.4151 1.1769
O 12.612 -68.9196 -0.187103
O 10.2657 -69.4151 3.90496
O 9.63556 -65.1737 1.17686
O 11.8706 -64.8806 -0.187032
O 9.63562 -65.1737 3.90498
O 18.5491 -65.4581 2.54122
Si 18.734 -67.0939 2.54116
Si 17.8909 -63.9537 2.54118
O 15.015 -66.3594 2.54104
Si 15.6358 -67.884 2.54107
Si 14.8724 -64.7234 2.54108
O 14.9814 -68.5498 3.9051
O 17.2886 -67.8955 2.5411
O 14.9814 -68.5498 1.17705
O 14.0641 -64.3611 3.90512
O 16.274 -63.9163 2.54111
O 14.0641 -64.3611 1.17705
O 22.9762 -64.0379 -0.186916
Si 23.2719 -65.6573 -0.186911
Si 22.2173 -62.5817 -0.186901
O 19.5115 -65.1775 -0.186919
Si 20.2346 -66.6563 -0.186916
Si 19.2581 -63.555 -0.186899
O 19.6272 -67.3652 1.17715
O 21.8844 -66.5553 -0.186928
O 19.6272 -67.3652 3.9052
O 18.427 -63.2485 1.17714
O 20.6015 -62.6544 -0.186909
O 18.427 -63.2485 3.90524
O -22.9383 64.0241 -0.19042
O -27.259 62.3071 2.53758
Si -27.6641 63.9027 2.5377
Si -26.4029 60.9058 2.53774
O -23.8795 63.6788 2.53784
Si -24.7014 65.1052 2.53777
Si -23.5164 62.0773 2.53774
O -24.1435 65.8535 3.90181
O -26.3405 64.8926 2.53772
O -24.1435 65.8535 1.17373
O -22.6664 61.8279 3.90177
O -24.7958 61.0878 2.5377
O -22.6664 61.828 1.17371
O -31.4533 60.3006 -0.190675
Si -31.9658 61.865 -0.190528
Si -30.5038 58.9608 -0.190546
O -28.1747 61.8988 -0.190141
Si -29.0916 63.266 -0.19037
Si -27.7036 60.3257 -0.190317
O -28.5858 64.0505 1.1737
O -30.7125 62.9426 -0.190463
O -28.5858 64.0505 3.90174
O -26.8387 60.1345 1.17373
O -28.9128 59.2516 -0.190452
O -26.8386 60.1346 3.90183
O -35.5011 58.0133 2.5374
Si -36.119 59.5391 2.53743
Si -34.4626 56.7412 2.53738
O -32.339 59.831 2.53764
Si -33.3469 61.1326 2.53755
Si -31.7619 58.2936 2.53754
O -32.8955 61.9497 3.90161
O -34.942 60.6995 2.5375
O -32.8955 61.9497 1.17348
O -30.8859 58.1618 3.90153
O -32.8951 57.1396 2.53758
O -30.886 58.1618 1.1735
Si -40.104 56.9353 -0.190598
Si -38.2607 54.2569 -0.190589
O -36.3527 57.4844 -0.190755
Si -37.447 58.7142 -0.19065
Si -35.6722 55.9899 -0.190703
O -37.0522 59.5602 1.17338
O -39.0089 58.1734 -0.190607
O -37.0523 59.5602 3.90144
O -34.7893 55.9181 1.17327
O -36.724 54.7613 -0.190552
O -34.7895 55.9179 3.90136
O 31.4905 -60.3131 -0.187012
O 35.5381 -58.0256 2.54112
Si 36.1561 -59.5513 2.54107
Si 34.4997 -56.7535 2.54106
O 32.3761 -59.8434 2.54103
Si 33.3841 -61.145 2.54106
Si 31.799 -58.306 2.54105
O 32.9328 -61.9621 3.90513
O 34.9792 -60.7119 2.54109
O 32.9328 -61.9621 1.17697
O 30.923 -58.1743 3.90504
O 32.9322 -57.152 2.54117
O 30.9231 -58.1742 1.17699
O 39.4206 -55.4678 -0.186778
Si 40.1411 -56.9479 -0.186923
Si 38.2979 -54.2694 -0.186924
O 36.3898 -57.4967 -0.187073
Si 37.484 -58.7266 -0.187005
Si 35.7093 -56.0022 -0.18702
O 37.0894 -59.5725 1.17704
O 39.0459 -58.1859 -0.186958
O 37.0894 -59.5725 3.90508
O 34.8264 -55.9304 1.17695
O 36.7612 -54.7737 -0.186921
O 34.8265 -55.9303 3.90509
O 43.1197 -52.651 2.54165
Si 43.9394 -54.0785 2.54122
Si 41.9177 -51.532 2.54124
O 40.2342 -54.8821 2.541
Si 41.4098 -56.0344 2.54114
Si 39.4534 -53.4374 2.54114
O 41.0737 -56.9053 3.9052
O 42.9312 -55.3883 2.54117
O 41.0737 -56.9054 1.1771
O 38.5678 -53.4259 3.90516
O 40.4191 -52.14 2.54115
O 38.5678 -53.4258 1.17712
Si 47.5328 -50.9562 -0.18681
Si 45.3418 -48.5538 -0.186794
O 43.8913 -52.0111 -0.187301
Si 45.1428 -53.0805 -0.186875
Si 43.0136 -50.6232 -0.186883
O 44.867 -53.9723 1.1772
O 46.6165 -52.3319 -0.186858
O 44.867 -53.9724 3.90524
O 42.1294 -50.6721 1.17716
O 43.8882 -49.2628 -0.186921
O 42.1292 -50.672 3.90532
O -46.5797 49.5747 -0.190561
O -49.8597 46.2796 2.53745
Si -50.8664 47.582 2.53746
Si -48.5165 45.3349 2.53747
O -47.3057 48.8834 2.53749
Si -48.6273 49.8648 2.53749
Si -46.3352 47.5587 2.5375
O -48.4131 50.7734 3.90154
O -50.0464 49.0171 2.53747
O -48.4131 50.7734 1.17344
O -45.4563 47.668 3.90155
O -47.1148 46.1417 2.53752
O -45.4564 47.668 1.17344
O -52.907 42.7681 -0.190673
Si -54.0003 43.9987 -0.190626
Si -51.5025 41.9173 -0.190645
O -50.5368 45.5403 -0.190612
Si -51.9224 46.4291 -0.190613
Si -49.4782 44.2849 -0.1906
O -51.7708 47.3503 1.17342
O -53.2802 45.4865 -0.190606
O -51.7708 47.3503 3.90151
O -48.6087 44.4541 1.17338
O -50.1591 42.8179 -0.190493
O -48.6088 44.454 3.90152
O -55.7075 39.0567 2.53754
Si -56.8822 40.21 2.53755
Si -54.2481 38.3038 2.53751
O -53.5321 41.9842 2.53741
Si -54.9751 42.7765 2.53745
Si -52.3902 40.8041 2.53743
O -54.8866 43.7059 3.90145
O -56.2654 41.7434 2.53752
O -54.8867 43.7058 1.17343
O -51.5343 41.0323 3.90139
O -52.9694 39.294 2.53769
O -51.5345 41.0321 1.17334
Si -59.4989 36.2333 -0.190339
Si -56.7409 34.5113 -0.19032
O -56.2776 38.232 -0.190647
Si -57.7713 38.924 -0.190524
Si -55.0579 37.1325 -0.190563
O -57.7465 39.8572 1.17349
O -58.9881 37.8053 -0.190407
O -57.7466 39.8572 3.90158
O -54.2195 37.4187 1.17338
O -55.5327 35.5865 -0.190249
O -54.2197 37.4184 3.90148
O 52.9442 -42.7812 -0.186595
Si 51.5396 -41.9305 -0.186712
O 55.7443 -39.0696 2.54153
Si 56.9191 -40.2227 2.54145
Si 54.2848 -38.3169 2.54147
O 53.5692 -41.9974 2.54129
Si 55.0122 -42.7895 2.54138
Si 52.4272 -40.8174 2.54135
O 54.924 -43.7188 3.90542
O 56.3024 -41.7562 2.5414
O 54.924 -43.7188 1.17733
O 51.5715 -41.0454 3.90545
O 53.0062 -39.3073 2.5412
O 51.5714 -41.0455 1.17737
O 58.2842 -35.1755 -0.186773
Si 59.5351 -36.2457 -0.186741
Si 56.7768 -34.5242 -0.186749
O 56.3142 -38.245 -0.186605
Si 57.808 -38.9366 -0.186634
Si 55.0943 -37.1457 -0.186608
O 57.7834 -39.8698 1.17742
O 59.0246 -37.8178 -0.186697
O 57.7834 -39.8699 3.9055
O 54.2562 -37.4315 1.17753
O 55.5688 -35.5996 -0.186917
O 54.256 -37.4319 3.9056
O 60.5525 -31.1172 2.54133
Si 61.8734 -32.0995 2.54125
Si 59.0041 -30.5702 2.54124
O 58.7965 -34.3139 2.54141
Si 60.334 -34.902 2.54133
Si 57.5044 -33.3004 2.54133
O 60.3733 -35.8347 3.90537
O 61.4714 -33.7027 2.54127
O 60.3733 -35.8347 1.17731
O 56.6878 -33.6429 3.90544
O 57.8723 -31.7255 2.54108
O 56.6877 -33.6431 1.17736
Si 63.9235 -27.8036 -0.186902
O 61.0048 -30.2226 -0.186883
Si 62.5788 -30.7045 -0.186839
Si 59.6466 -29.2995 -0.186847
O 62.6816 -31.6323 1.17719
O 63.6318 -29.4305 -0.186924
O 62.6816 -31.6324 3.90531
O 58.8552 -29.697 1.17728
O 59.9063 -27.7032 -0.187092
O 58.8551 -29.6972 3.90533
O -62.505 26.9017 -0.189896
Si -60.923 26.4613 -0.189983
O -64.2012 22.5728 2.53847
Si -65.6434 23.3666 2.53827
Si -62.5929 22.2412 2.5383
O -62.8956 25.9784 2.53798
Si -64.4987 26.3522 2.53809
Si -61.4778 25.1498 2.53809
O -64.6642 27.2709 3.90213
O -65.4628 25.0096 2.53816
O -64.6642 27.2709 1.17405
O -60.7152 25.6003 3.90209
O -61.6285 23.5395 2.53826
O -60.7152 25.6002 1.17402
O -65.5986 18.1383 -0.189679
Si -67.0914 18.832 -0.189765
Si -63.9714 17.9171 -0.189762
O -64.528 21.625 -0.189913
Si -66.1529 21.8887 -0.189807
Si -63.0571 20.8949 -0.189795
O -66.3806 22.7939 1.17424
O -67.0232 20.4834 -0.189779
O -66.3807 22.794 3.90231
O -62.3269 21.3963 1.17425
O -63.0977 19.2781 -0.189727
O -62.3269 21.3963 3.90232
O -66.6903 13.619 2.53861
Si -68.2271 14.2092 2.53846
Si -65.0519 13.5091 2.53849
O -65.8599 17.1704 2.53816
Si -67.4991 17.3227 2.5383
Si -64.3426 16.5423 2.53831
O -67.7879 18.2104 3.90233
O -68.2716 15.8615 2.53839
O -67.788 18.2104 1.17425
O -63.6484 17.0924 3.90232
O -64.273 14.9265 2.53844
O -63.6484 17.0923 1.17424
Si -69.0449 9.51975 -0.189598
O -66.8852 12.6354 -0.189671
Si -68.5308 12.6757 -0.18962
Si -65.3286 12.1121 -0.189589
O -68.8796 13.5416 1.17442
O -69.202 11.1651 -0.189613
O -68.8796 13.5417 3.90251
O -64.6735 12.7082 1.17447
O -65.1489 10.5048 -0.189569
O -64.6734 12.7082 3.90252
O 65.6306 -18.1499 -0.188142
Si 64.0034 -17.9289 -0.187623
O 66.722 -13.6306 2.53985
Si 68.2588 -14.2208 2.54017
Si 65.0836 -13.521 2.54017
O 65.8919 -17.1821 2.54099
Si 67.5311 -17.3343 2.54047
Si 64.3746 -16.5543 2.54049
O 67.8201 -18.2219 3.90451
O 68.3034 -15.873 2.5403
O 67.82 -18.2219 1.17644
O 63.6802 -17.1043 3.90448
O 64.3047 -14.9384 2.54046
O 63.6804 -17.1042 1.17641
O 67.503 -9.04755 -0.188525
Si 69.0764 -9.53159 -0.188295
Si 65.8609 -9.04974 -0.188338
O 66.9168 -12.6474 -0.187566
Si 68.5625 -12.6875 -0.187897
Si 65.3602 -12.1242 -0.187889
O 68.9114 -13.5533 1.17613
O 69.2335 -11.177 -0.188097
O 68.9113 -13.5533 3.90425
O 64.7049 -12.7204 1.17608
O 65.1804 -10.517 -0.187853
O 64.7051 -12.7202 3.90416