2640
 Atoms. Timestep: 263060
O 1.90849 -5.49207 3.08721
Si 2.01383 -7.13791 3.09405
Si 1.13557 -4.04516 3.11441
O 5.49654 -5.53111 1.76262
Si 6.53012 -5.49049 0.426558
Si 4.36732 -4.62146 2.49152
O 2.52614 -5.30675 0.183378
Si 3.42866 -6.68986 0.23368
Si 2.37575 -3.67333 0.423277
O 2.91187 -7.36717 1.68609
O 5.0807 -6.37443 -0.00179268
O 2.74494 -7.46816 120.954
O 1.35387 -3.40611 1.65194
O 3.68395 -3.6905 1.36877
O 1.97108 -3.3189 120.931
O 5.61051 -3.70143 3.41952
Si 7.24565 -3.85215 3.18582
Si 4.65785 -2.94404 4.83626
O 7.26664 -4.76982 4.63009
O 7.86358 -2.29329 3.01797
O 7.34948 -4.7791 1.78028
O 5.00071 -1.99722 6.32513
O 4.25083 -2.1611 3.43417
O 3.75193 -4.15331 3.99328
O 1.7457 -5.57707 8.67325
Si 1.83985 -7.22684 8.6401
Si 1.08424 -4.08102 8.8718
O 5.36357 -3.9562 6.18928
Si 6.41209 -5.20785 6.03276
Si 4.51806 -3.13904 7.68301
O 2.34636 -5.45558 5.92855
Si 3.44418 -6.70259 5.91841
Si 1.97798 -3.85588 6.01312
O 2.78948 -7.45392 7.27432
O 5.11117 -6.33273 5.98106
O 2.92968 -7.38711 4.47537
O 1.1059 -3.54936 7.34233
O 3.48174 -3.28708 6.18981
O 1.58265 -3.36781 4.52255
O 5.80037 -3.38637 8.97194
Si 7.35617 -3.87498 8.76879
Si 4.93497 -3.10281 10.5397
O 7.3506 -4.75962 10.2169
O 7.98008 -2.29793 8.5675
O 7.28437 -4.87038 7.42495
O 5.60249 -3.36632 12.0019
O 4.71742 -1.59057 9.90645
O 3.82351 -3.42034 9.25089
O 6.00913 -0.302808 2.72492
Si 7.61258 -0.634332 2.84955
Si 4.43521 -0.739097 2.71619
O 5.94909 3.11479 0.956406
Si 6.97172 4.25166 0.308603
Si 4.65034 2.78431 1.85624
O 5.8279 0.666829 -0.146863
Si 7.45198 1.00495 0.0733101
Si 4.16254 0.537638 0.00113274
O 8.00637 0.159701 1.41786
O 7.71479 2.68347 0.123581
O 8.06071 0.249397 120.732
O 3.87255 -0.493019 1.22392
O 3.79743 1.85708 0.853855
O 3.77411 0.14153 120.512
O 4.69007 4.10169 3.11283
Si 5.58154 5.50013 3.00712
Si 4.05388 3.23751 4.65106
O 6.59117 5.17336 4.3342
O 4.33197 6.67137 3.00844
O 6.54043 5.26035 1.62592
O 3.46472 3.64183 6.30313
O 2.7682 3.15166 3.62085
O 4.47708 2.1369 3.39964
O 6.07769 -0.317164 8.24786
Si 7.68725 -0.628927 8.42296
Si 4.50554 -0.787154 8.42311
O 5.41181 3.52831 5.87085
Si 6.90831 4.15769 5.65067
Si 4.62439 2.80539 7.38474
O 6.10024 0.215286 5.55121
Si 7.59754 0.92854 5.6158
Si 4.4599 0.302215 5.5666
O 8.1576 0.173324 7.01499
O 7.66553 2.62795 5.56088
O 8.11554 0.209611 4.19692
O 3.92882 -0.417808 6.92095
O 4.28722 1.87817 5.85333
O 3.90002 -0.0159663 4.07844
O 5.11773 4.00284 8.65165
Si 6.08347 5.33317 8.46728
Si 4.47483 3.31206 10.2061
O 6.82284 5.12076 9.96863
O 4.87763 6.46615 8.19864
O 6.97625 4.98345 7.10291
O 4.61828 4.50657 11.3258
O 2.91995 3.15669 9.66914
O 4.47493 2.13398 8.93788
O 1.80462 5.65195 3.17466
Si 2.6664 7.042 3.06995
Si 1.5898 4.04491 2.99892
O -1.74149 6.64237 1.14399
Si -2.50757 8.02188 0.702006
Si -1.35255 5.62787 2.35163
O 0.706509 6.16571 0.050411
Si 0.727919 7.73932 0.577412
Si 0.42893 4.53963 0.236345
O 1.86411 7.80187 1.80894
O -0.827039 8.37615 0.748974
O 1.38722 8.63563 121.394
O 1.24683 3.80282 1.44104
O -0.78611 4.54115 1.30695
O 0.652284 3.87369 120.818
O -2.68748 5.9017 3.55391
Si -3.8199 7.11883 3.46381
Si -2.10664 4.92834 5.06439
O -3.20959 7.93088 4.82263
O -5.2624 6.25423 3.34515
O -3.4498 7.99874 2.08958
O -2.66434 4.4316 6.71624
O -2.26058 3.82546 3.82667
O -0.841331 5.23105 3.91425
O 2.35553 5.48158 8.79214
Si 3.2321 6.64905 8.07582
Si 1.816 3.92788 8.76083
O -1.94955 6.25457 6.3213
Si -2.1514 7.86895 6.14096
Si -1.49475 5.28259 7.81501
O 1.37546 5.83585 5.77913
Si 1.1736 7.48356 5.83475
Si 0.802123 4.30557 5.91987
O 2.32084 7.58341 7.05786
O -0.429453 8.09024 5.99822
O 2.04337 7.77695 4.43639
O 1.4517 3.57212 7.21808
O -0.734713 4.67044 6.26047
O 0.803911 3.72548 4.40049
O -2.66568 5.93682 9.06543
Si -3.70368 7.20833 8.90052
Si -2.22599 5.01944 10.582
O -3.36009 7.9936 10.3529
O -5.14095 6.31825 8.7251
O -3.05296 8.02048 7.56899
O -3.1276 5.2346 11.9288
O -2.42805 3.59478 9.77299
O -0.979043 4.91914 9.39255
O -4.86855 3.59177 3.01182
Si -6.01718 4.76051 3.14687
Si -3.34524 2.99494 2.97423
O -6.85366 0.872462 1.22804
Si -8.30739 0.492051 0.527675
Si -5.69062 0.516766 2.28317
O -5.27299 2.76778 0.161637
Si -6.80996 3.4098 0.318791
Si -3.92404 1.78462 0.300172
O -6.79894 4.36995 1.70386
O -8.00369 2.19765 0.27018
O -6.77513 4.40653 120.997
O -3.04454 2.46495 1.48346
O -4.44746 0.613099 1.27434
O -3.44564 1.72321 120.793
O -6.45813 -0.61665 3.44851
Si -7.9985 -1.21567 3.28184
Si -5.44403 -0.390401 5.0075
O -8.62646 -0.466873 4.66326
O -7.60616 -2.8552 3.16069
O -8.62344 -0.452661 1.91118
O -5.16358 -1.03697 6.68123
O -4.30734 -0.849037 3.89262
O -5.24706 0.915419 3.86545
O -4.84384 3.56184 8.6445
Si -5.91987 4.81381 8.6805
Si -3.36831 2.84 8.67525
O -6.67501 0.189071 6.23168
Si -8.27836 0.45001 6.03535
Si -5.61198 0.384345 7.72318
O -5.25287 3.20153 5.79981
Si -6.88818 3.46956 5.92728
Si -3.95723 2.1908 5.81464
O -6.81503 4.43424 7.30618
O -7.9628 2.14224 5.97257
O -6.91546 4.33352 4.48974
O -3.06183 2.49055 7.12953
O -4.79385 0.857143 6.16725
O -3.36751 2.07259 4.31823
O -6.59063 -0.469247 8.97978
Si -8.08415 -1.14285 8.80806
Si -5.71449 -0.185487 10.5329
O -8.60579 -0.452542 10.2608
O -7.6388 -2.7731 8.70728
O -8.6958 -0.365816 7.45025
O -6.47067 -1.00093 11.7358
O -4.37349 -0.842102 9.80116
O -5.18442 0.913534 9.29258
O -4.90254 -3.33356 2.97586
Si -6.39189 -4.02245 3.07361
Si -3.85927 -2.08065 2.95137
O -2.80699 -5.91755 1.11108
Si -2.92365 -7.45204 0.507706
Si -2.09783 -4.91557 2.15902
O -4.20605 -3.91496 0.0878161
Si -5.27963 -5.1825 0.278904
Si -2.90917 -2.86573 0.224181
O -6.21312 -4.8971 1.64706
O -4.46366 -6.67178 0.284003
O -6.22188 -4.87291 120.952
O -3.29492 -1.88118 1.45751
O -1.88603 -3.6784 1.16177
O -2.7731 -2.35125 120.738
O -1.29963 -5.97963 3.37582
Si -1.19935 -7.63398 3.25862
Si -1.22658 -4.8888 4.90879
O -2.11712 -7.96887 4.63847
O 0.477053 -7.83785 3.16682
O -2.11446 -8.02146 1.89228
O -0.436546 -4.81167 6.52613
O -0.345048 -4.14488 3.71343
O -2.33788 -4.30797 3.71612
O -4.92899 -3.16807 8.59455
Si -6.39725 -3.91875 8.65088
Si -3.85925 -1.92068 8.67533
O -2.07089 -5.90746 6.18111
Si -2.87534 -7.32392 5.99898
Si -1.81389 -4.83761 7.67935
O -4.62954 -3.69995 5.80801
Si -5.38815 -5.17362 5.87721
Si -3.27739 -2.767 5.8458
O -6.28745 -4.8637 7.26484
O -4.41002 -6.56879 5.91423
O -6.25218 -4.96091 4.4535
O -3.36522 -1.78398 7.13587
O -2.17844 -3.9136 6.14095
O -2.99095 -2.29139 4.32452
O -1.4272 -6.08804 8.94137
Si -1.35955 -7.72765 8.77138
Si -1.34036 -5.17075 10.4997
O -2.16662 -8.02951 10.2196
O 0.311419 -7.93503 8.65611
O -2.29518 -8.01486 7.41382
O -0.9008 -6.22013 11.6809
O -0.181809 -4.15912 9.89551
O -2.07281 -4.22342 9.24799
O 1.90851 -5.49206 14.1807
Si 2.01385 -7.1379 14.1875
Si 1.13561 -4.04514 14.2079
O 5.49656 -5.53107 12.8561
Si 6.53014 -5.49046 11.5201
Si 4.36735 -4.62141 13.585
O 2.52618 -5.3067 11.2769
Si 3.42868 -6.68982 11.3272
Si 2.3758 -3.67327 11.5168
O 2.91188 -7.36715 12.7796
O 5.08072 -6.3744 11.0917
O 2.74495 -7.4681 10.0189
O 1.35392 -3.40607 12.7454
O 3.68399 -3.69045 12.4623
O 1.97111 -3.31884 9.99616
O 5.61055 -3.70141 14.513
Si 7.24569 -3.85214 14.2793
Si 4.6579 -2.94403 15.9298
O 7.26668 -4.76983 15.7236
O 7.86362 -2.29328 14.1115
O 7.3495 -4.77908 12.8738
O 5.00076 -1.99728 17.4187
O 4.25089 -2.16111 14.5277
O 3.75197 -4.15328 15.0868
O 1.74569 -5.57716 19.7667
Si 1.83988 -7.22692 19.7335
Si 1.08421 -4.08112 19.9653
O 5.36361 -3.95625 17.2828
Si 6.41213 -5.20789 17.1262
Si 4.51809 -3.13914 18.7765
O 2.3464 -5.45561 17.022
Si 3.44422 -6.70263 17.0119
Si 1.97803 -3.85592 17.1066
O 2.78951 -7.45398 18.3678
O 5.11121 -6.33278 17.0745
O 2.92971 -7.38712 15.5688
O 1.10589 -3.54944 18.4358
O 3.48178 -3.28712 17.2833
O 1.58271 -3.36782 15.616
O 5.80046 -3.38639 20.0654
Si 7.35626 -3.87501 19.8622
Si 4.93511 -3.10277 21.6332
O 7.35073 -4.7597 21.3103
O 7.98015 -2.29795 19.661
O 7.28443 -4.87042 18.5184
O 5.60259 -3.36651 23.0954
O 4.71759 -1.59054 20.9999
O 3.82362 -3.42039 20.3445
O 6.00917 -0.302813 13.8184
Si 7.61262 -0.634322 13.943
Si 4.43525 -0.739117 13.8097
O 5.9491 3.1148 12.0499
Si 6.97173 4.25168 11.4021
Si 4.65035 2.78433 12.9497
O 5.82793 0.666817 10.9466
Si 7.452 1.00496 11.1668
Si 4.16256 0.537628 11.0946
O 8.0064 0.159711 12.5113
O 7.7148 2.68348 11.2171
O 8.06073 0.249413 9.7977
O 3.87258 -0.493038 12.3174
O 3.79745 1.85708 11.9473
O 3.77414 0.141531 9.57711
O 4.69008 4.1017 14.2063
Si 5.58154 5.50015 14.1006
Si 4.05389 3.23753 15.7446
O 6.59118 5.17338 15.4277
O 4.33197 6.67139 14.1019
O 6.54044 5.26036 12.7194
O 3.46473 3.64184 17.3966
O 2.76821 3.15168 14.7143
O 4.47709 2.13692 14.4931
O 6.07774 -0.317221 19.3413
Si 7.68731 -0.62895 19.5164
Si 4.5056 -0.787217 19.5166
O 5.41182 3.52832 16.9643
Si 6.90833 4.15771 16.7441
Si 4.62441 2.80541 18.4782
O 6.10028 0.215308 16.6447
Si 7.59758 0.928562 16.7093
Si 4.45994 0.302229 16.6601
O 8.15765 0.173334 18.1085
O 7.66555 2.62798 16.6544
O 8.11558 0.209634 15.2904
O 3.92887 -0.417823 18.0144
O 4.28724 1.87819 16.9468
O 3.90007 -0.0159652 15.1719
O 5.11773 4.00288 19.7451
Si 6.08348 5.3332 19.5608
Si 4.47482 3.31213 21.2996
O 6.82283 5.12077 21.0621
O 4.87763 6.46619 19.2921
O 6.97626 4.98348 18.1964
O 4.61826 4.50659 22.4193
O 2.91996 3.15673 20.7626
O 4.47494 2.13401 20.0314
O 1.80463 5.65197 14.2681
Si 2.6664 7.04203 14.1634
Si 1.58981 4.04493 14.0924
O -1.7415 6.64239 12.2375
Si -2.50757 8.0219 11.7955
Si -1.35253 5.62792 13.4451
O 0.706511 6.16574 11.1439
Si 0.727918 7.73934 11.6709
Si 0.428935 4.53966 11.3298
O 1.86412 7.80189 12.9024
O -0.827043 8.37617 11.8425
O 1.38721 8.63566 10.4596
O 1.24684 3.80285 12.5345
O -0.786101 4.54118 12.4004
O 0.652292 3.8737 9.88343
O -2.68748 5.90173 14.6474
Si -3.8199 7.11885 14.5573
Si -2.10666 4.92836 16.1579
O -3.2096 7.9309 15.9161
O -5.2624 6.25426 14.4386
O -3.44981 7.99876 13.1831
O -2.66435 4.43162 17.8097
O -2.2606 3.82551 14.9201
O -0.841332 5.23108 15.0077
O 2.35553 5.48162 19.8856
Si 3.2321 6.64908 19.1693
Si 1.816 3.92792 19.8543
O -1.94957 6.25459 17.4148
Si -2.15141 7.86897 17.2344
Si -1.49476 5.28261 18.9085
O 1.37545 5.83589 16.8726
Si 1.17359 7.4836 16.9282
Si 0.802114 4.3056 17.0133
O 2.32083 7.58345 18.1513
O -0.429464 8.09027 17.0917
O 2.04336 7.77698 15.5299
O 1.45171 3.57216 18.3115
O -0.734722 4.67047 17.3539
O 0.80391 3.72551 15.494
O -2.6657 5.93683 20.1589
Si -3.7037 7.20834 19.994
Si -2.22603 5.01945 21.6755
O -3.36011 7.99361 21.4464
O -5.14097 6.31826 19.8186
O -3.05298 8.0205 18.6625
O -3.12762 5.2346 23.0223
O -2.42807 3.59479 20.8665
O -0.979069 4.91916 20.486
O -4.86856 3.5918 14.1053
Si -6.01719 4.76054 14.2403
Si -3.34526 2.99496 14.0677
O -6.85368 0.872488 12.3215
Si -8.30741 0.492078 11.6212
Si -5.69064 0.516792 13.3767
O -5.273 2.7678 11.2551
Si -6.80998 3.40983 11.4123
Si -3.92406 1.78464 11.3937
O -6.79895 4.36998 12.7973
O -8.0037 2.19768 11.3637
O -6.77513 4.40655 10.0623
O -3.04455 2.46497 12.5769
O -4.44748 0.613121 12.3678
O -3.44565 1.72322 9.85812
O -6.45814 -0.616626 14.542
Si -7.99852 -1.21564 14.3753
Si -5.44404 -0.390378 16.101
O -8.62648 -0.466851 15.7567
O -7.60617 -2.85517 14.2542
O -8.62346 -0.452637 13.0047
O -5.1636 -1.03693 17.7747
O -4.30735 -0.849015 14.9861
O -5.24708 0.915444 14.9589
O -4.84386 3.56184 19.738
Si -5.91989 4.81381 19.774
Si -3.36833 2.84 19.7687
O -6.67503 0.189096 17.3252
Si -8.27838 0.450034 17.1288
Si -5.612 0.384388 18.8167
O -5.25289 3.20156 16.8933
Si -6.8882 3.46959 17.0208
Si -3.95724 2.19083 16.9081
O -6.81505 4.43425 18.3997
O -7.96282 2.14226 17.066
O -6.91548 4.33355 15.5832
O -3.06185 2.49057 18.223
O -4.79387 0.857176 17.2607
O -3.36753 2.07261 15.4117
O -6.59065 -0.469229 20.0733
Si -8.08416 -1.14284 19.9015
Si -5.71451 -0.185484 21.6264
O -8.6058 -0.452548 21.3543
O -7.63882 -2.77309 19.8007
O -8.69582 -0.365794 18.5437
O -6.47066 -1.00094 22.8293
O -4.3735 -0.84208 20.8946
O -5.18445 0.913559 20.3861
O -4.90255 -3.33352 14.0693
Si -6.3919 -4.02242 14.1671
Si -3.85928 -2.08062 14.0449
O -2.80696 -5.91751 12.2046
Si -2.92363 -7.452 11.6012
Si -2.09779 -4.91553 13.2525
O -4.20605 -3.91492 11.1813
Si -5.27962 -5.18247 11.3724
Si -2.90917 -2.86569 11.3177
O -6.21312 -4.89707 12.7405
O -4.46365 -6.67174 11.3775
O -6.22188 -4.87289 10.017
O -3.29492 -1.88114 12.551
O -1.88601 -3.67836 12.2552
O -2.77311 -2.35122 9.80341
O -1.2996 -5.9796 14.4693
Si -1.19933 -7.63395 14.3521
Si -1.22655 -4.88876 16.0023
O -2.1171 -7.96884 15.7319
O 0.47707 -7.83783 14.2603
O -2.11445 -8.02143 12.9858
O -0.436529 -4.81164 17.6196
O -0.345002 -4.14482 14.8069
O -2.33783 -4.30793 14.8096
O -4.92901 -3.16805 19.688
Si -6.39727 -3.91874 19.7443
Si -3.85926 -1.92066 19.7688
O -2.07087 -5.90743 17.2746
Si -2.87532 -7.32388 17.0924
Si -1.81387 -4.83759 18.7728
O -4.62953 -3.69993 16.9015
Si -5.38815 -5.17361 16.9707
Si -3.27738 -2.76699 16.9393
O -6.28745 -4.86368 18.3583
O -4.41001 -6.56876 17.0077
O -6.25218 -4.96089 15.547
O -3.36523 -1.78396 18.2293
O -2.17843 -3.91357 17.2344
O -2.99095 -2.29136 15.418
O -1.42719 -6.08804 20.0348
Si -1.35953 -7.72765 19.8648
Si -1.3404 -5.17077 21.5932
O -2.16662 -8.02952 21.313
O 0.311433 -7.93508 19.7496
O -2.29517 -8.01485 18.5073
O -0.900841 -6.2201 22.7744
O -0.181827 -4.15917 20.989
O -2.07284 -4.22344 20.3415
O 1.90872 -5.49216 25.2741
Si 2.01396 -7.13799 25.2809
Si 1.13569 -4.04532 25.3013
O 5.49672 -5.53133 23.9495
Si 6.53028 -5.4906 22.6135
Si 4.36742 -4.62177 24.6784
O 2.5263 -5.30684 22.3702
Si 3.42881 -6.68996 22.4206
Si 2.37592 -3.67342 22.6101
O 2.91202 -7.36726 23.873
O 5.08085 -6.37451 22.1851
O 2.74502 -7.46822 21.1124
O 1.35405 -3.40621 23.8388
O 3.68409 -3.69074 23.5557
O 1.97114 -3.31896 21.0896
O 5.61052 -3.70159 25.6064
Si 7.24567 -3.85218 25.3727
Si 4.65775 -2.94417 27.023
O 7.26666 -4.76982 26.817
O 7.86355 -2.2933 25.2049
O 7.34958 -4.77913 23.9672
O 5.00059 -1.9972 28.5118
O 4.25068 -2.16111 25.621
O 3.75196 -4.15359 26.1801
O 1.74581 -5.57706 30.8602
Si 1.83988 -7.22683 30.8271
Si 1.08435 -4.08102 31.0587
O 5.36355 -3.95616 28.3761
Si 6.41208 -5.20781 28.2197
Si 4.51803 -3.13894 29.8698
O 2.34634 -5.45565 28.1155
Si 3.4442 -6.70263 28.1053
Si 1.97792 -3.85596 28.2
O 2.78953 -7.45393 29.4613
O 5.11118 -6.33273 28.168
O 2.92975 -7.38718 26.6623
O 1.10593 -3.54938 29.5293
O 3.48168 -3.28714 28.3766
O 1.58255 -3.36792 26.7094
O 5.80022 -3.38637 31.1588
Si 7.35605 -3.87495 30.9557
Si 4.93469 -3.10297 32.7265
O 7.35043 -4.75955 32.4039
O 7.97997 -2.29791 30.7545
O 7.28431 -4.87035 29.6119
O 5.6023 -3.36618 34.1887
O 4.71701 -1.59073 32.0933
O 3.82334 -3.42038 31.4376
O 6.00907 -0.302829 24.9119
Si 7.61252 -0.634346 25.0365
Si 4.43513 -0.73909 24.9031
O 5.94909 3.11479 23.1434
Si 6.97171 4.25167 22.4956
Si 4.65032 2.7843 24.0432
O 5.8279 0.66684 22.04
Si 7.45197 1.00495 22.2603
Si 4.16254 0.537638 22.188
O 8.00633 0.159698 23.6048
O 7.71478 2.68347 22.3105
O 8.06074 0.249393 20.8912
O 3.8725 -0.492999 23.4108
O 3.79743 1.85709 23.0408
O 3.77414 0.141458 20.6705
O 4.69004 4.10167 25.2998
Si 5.5815 5.50012 25.1941
Si 4.05383 3.23751 26.838
O 6.59112 5.17335 26.5212
O 4.33193 6.67137 25.1954
O 6.54041 5.26035 23.8129
O 3.46465 3.64182 28.4901
O 2.76816 3.15167 25.8078
O 4.47703 2.13689 25.5866
O 6.07759 -0.317125 30.4349
Si 7.68716 -0.628909 30.6099
Si 4.50544 -0.787132 30.61
O 5.41175 3.52829 28.0578
Si 6.90826 4.15767 27.8376
Si 4.62432 2.80538 29.5717
O 6.10017 0.215271 27.7381
Si 7.59746 0.928522 27.8027
Si 4.45982 0.302204 27.7535
O 8.15751 0.173313 29.2019
O 7.66546 2.62793 27.7478
O 8.11547 0.209589 26.3839
O 3.92875 -0.41784 29.1079
O 4.28716 1.87816 28.0403
O 3.89995 -0.0159608 26.2654
O 5.11768 4.00281 30.8386
Si 6.08343 5.33313 30.6542
Si 4.47478 3.31202 32.393
O 6.82281 5.12074 32.1556
O 4.87758 6.46612 30.3856
O 6.9762 4.98342 29.2899
O 4.61826 4.50653 33.5127
O 2.9199 3.15665 31.8561
O 4.47487 2.13394 31.1248
O 1.80457 5.65197 25.3616
Si 2.66637 7.04201 25.2569
Si 1.58975 4.04492 25.1859
O -1.74153 6.6424 23.3309
Si -2.5076 8.02191 22.889
Si -1.35255 5.62792 24.5386
O 0.706483 6.16576 22.2373
Si 0.727887 7.73936 22.7644
Si 0.428908 4.53968 22.4233
O 1.86408 7.80189 23.9959
O -0.827074 8.37619 22.9359
O 1.38719 8.63569 21.5531
O 1.24678 3.80285 23.628
O -0.786119 4.5412 23.4939
O 0.652284 3.87373 20.9769
O -2.68749 5.90172 25.7409
Si -3.81992 7.11884 25.6508
Si -2.10666 4.92835 27.2513
O -3.20961 7.93088 27.0096
O -5.26241 6.25423 25.5321
O -3.44984 7.99876 24.2765
O -2.66437 4.4316 28.9032
O -2.26059 3.8255 26.0136
O -0.841339 5.23108 26.1012
O 2.35548 5.48156 30.9791
Si 3.23206 6.64902 30.2628
Si 1.81595 3.92785 30.9478
O -1.94957 6.25457 28.5082
Si -2.15142 7.86895 28.3279
Si -1.49477 5.28258 30.0019
O 1.37544 5.83584 27.9661
Si 1.17357 7.48355 28.0217
Si 0.802099 4.30555 28.1068
O 2.32081 7.58339 29.2448
O -0.429473 8.09023 28.1852
O 2.04335 7.77694 26.6234
O 1.45166 3.5721 29.405
O -0.734736 4.67044 28.4474
O 0.803882 3.72548 26.5874
O -2.66568 5.93681 31.2524
Si -3.70368 7.20832 31.0875
Si -2.22597 5.01943 32.7689
O -3.36007 7.99358 32.5399
O -5.14096 6.31825 30.9121
O -3.05297 8.02048 29.7559
O -3.1276 5.23458 34.1157
O -2.42803 3.59477 31.9599
O -0.979034 4.91914 31.5795
O -4.86856 3.59176 25.1988
Si -6.01719 4.7605 25.3338
Si -3.34525 2.99493 25.1612
O -6.85368 0.872468 23.415
Si -8.3074 0.492058 22.7146
Si -5.69062 0.516771 24.4701
O -5.27299 2.7678 22.3486
Si -6.80997 3.40981 22.5057
Si -3.92406 1.78462 22.4871
O -6.79895 4.36995 23.8908
O -8.00369 2.19765 22.4571
O -6.77514 4.40654 21.1558
O -3.04455 2.46494 23.6704
O -4.44747 0.613102 23.4613
O -3.44566 1.72322 20.9516
O -6.45811 -0.616665 25.6355
Si -7.99849 -1.21569 25.4688
Si -5.444 -0.390435 27.1945
O -8.62644 -0.466897 26.8502
O -7.60613 -2.85522 25.3477
O -8.62344 -0.45268 24.0981
O -5.16355 -1.037 28.8682
O -4.3073 -0.849068 26.0796
O -5.24703 0.915393 26.0524
O -4.84384 3.56184 30.8315
Si -5.91988 4.8138 30.8674
Si -3.36831 2.84001 30.8622
O -6.67499 0.189027 28.4186
Si -8.27834 0.449977 28.2223
Si -5.61195 0.384301 29.9101
O -5.25287 3.20151 27.9868
Si -6.88818 3.46954 28.1142
Si -3.95722 2.19078 28.0016
O -6.81503 4.43423 29.4931
O -7.96279 2.14221 28.1595
O -6.91547 4.3335 26.6767
O -3.06183 2.49055 29.3165
O -4.79383 0.857114 28.3542
O -3.36752 2.07258 26.5052
O -6.59061 -0.469298 31.1667
Si -8.08412 -1.14291 30.995
Si -5.71449 -0.185527 32.7199
O -8.60579 -0.452585 32.4477
O -7.63876 -2.77316 30.8942
O -8.69577 -0.365869 29.6372
O -6.47069 -1.00094 33.9228
O -4.37348 -0.842143 31.9881
O -5.18442 0.913494 31.4795
O -4.9025 -3.33358 25.1628
Si -6.39186 -4.02247 25.2606
Si -3.85924 -2.08067 25.1383
O -2.80703 -5.91753 23.298
Si -2.92364 -7.45201 22.6946
Si -2.09792 -4.91555 24.346
O -4.20607 -3.91495 22.2747
Si -5.27965 -5.1825 22.4658
Si -2.9092 -2.86572 22.4111
O -6.21311 -4.89711 23.834
O -4.46367 -6.67178 22.4709
O -6.22192 -4.87289 21.1104
O -3.29492 -1.88118 23.6445
O -1.88608 -3.6784 23.3488
O -2.77313 -2.35123 20.8969
O -1.29961 -5.97961 25.5627
Si -1.19927 -7.63395 25.4455
Si -1.22648 -4.88881 27.0957
O -2.11701 -7.96886 26.8254
O 0.477141 -7.83786 25.3537
O -2.11441 -8.02143 24.0792
O -0.436436 -4.81168 28.713
O -0.345013 -4.14535 25.9
O -2.33788 -4.30798 25.9031
O -4.92895 -3.1681 30.7815
Si -6.3972 -3.9188 30.8378
Si -3.85923 -1.9207 30.8623
O -2.07078 -5.90747 28.368
Si -2.87524 -7.32392 28.1859
Si -1.81377 -4.83764 29.8663
O -4.62946 -3.69998 27.995
Si -5.38808 -5.17365 28.0641
Si -3.27731 -2.76703 28.0328
O -6.28738 -4.86375 29.4518
O -4.40993 -6.56881 28.1011
O -6.25213 -4.96093 26.6405
O -3.36518 -1.78401 29.3228
O -2.17834 -3.91361 28.3279
O -2.9909 -2.2914 26.5115
O -1.42712 -6.08809 31.1283
Si -1.35953 -7.72771 30.9583
Si -1.34022 -5.17083 32.6866
O -2.1666 -8.02959 32.4065
O 0.311454 -7.93504 30.843
O -2.29513 -8.0149 29.6007
O -0.90072 -6.22032 33.8677
O -0.181664 -4.15917 32.0825
O -2.07265 -4.22345 31.4349
O 1.90817 -5.49191 36.3678
Si 2.01366 -7.13775 36.3746
Si 1.13542 -4.04489 36.395
O 5.49637 -5.53083 35.0431
Si 6.52997 -5.49036 33.7071
Si 4.36725 -4.62108 35.7721
O 2.52596 -5.30658 33.464
Si 3.4285 -6.68969 33.5142
Si 2.37558 -3.67315 33.7038
O 2.9117 -7.367 34.9666
O 5.08054 -6.37429 33.2788
O 2.74487 -7.46803 32.206
O 1.35368 -3.40591 34.9325
O 3.68383 -3.69018 34.6493
O 1.97108 -3.31878 32.1832
O 5.61057 -3.70125 36.7001
Si 7.24568 -3.85212 36.4663
Si 4.65805 -2.94389 38.117
O 7.26668 -4.76984 37.9106
O 7.86367 -2.29328 36.2984
O 7.3494 -4.77908 35.0608
O 5.00095 -1.99727 39.6059
O 4.25111 -2.16112 36.7147
O 3.75196 -4.15296 37.2739
O 1.74564 -5.57703 41.9537
Si 1.83983 -7.2268 41.9205
Si 1.08423 -4.08096 42.1523
O 5.36367 -3.95625 39.4699
Si 6.41216 -5.20791 39.3132
Si 4.51816 -3.13919 40.9637
O 2.34643 -5.45544 39.209
Si 3.44418 -6.70251 39.1989
Si 1.97812 -3.85574 39.2936
O 2.78946 -7.45386 40.5547
O 5.11118 -6.33274 39.2615
O 2.9296 -7.38698 37.7558
O 1.10597 -3.54926 40.6228
O 3.48188 -3.28699 39.4704
O 1.58282 -3.3676 37.8031
O 5.80055 -3.38642 42.2525
Si 7.35634 -3.87506 42.0493
Si 4.93526 -3.10271 43.8203
O 7.35078 -4.75974 43.4973
O 7.98022 -2.29799 41.848
O 7.28447 -4.87046 40.7054
O 5.60268 -3.36647 45.2825
O 4.71782 -1.5905 43.187
O 3.82372 -3.42038 42.5316
O 6.00925 -0.302791 36.0054
Si 7.61269 -0.634324 36.13
Si 4.43534 -0.73913 35.9967
O 5.94908 3.1148 34.2368
Si 6.97172 4.25167 33.5891
Si 4.65033 2.78432 35.1367
O 5.82793 0.666794 33.1336
Si 7.452 1.00496 33.3538
Si 4.16257 0.537616 33.2816
O 8.00645 0.159716 34.6983
O 7.71479 2.68349 33.404
O 8.0607 0.249426 31.9847
O 3.87263 -0.493069 34.5044
O 3.79743 1.85706 34.1343
O 3.77411 0.1416 31.7641
O 4.69008 4.10167 36.3933
Si 5.58156 5.50011 36.2876
Si 4.05392 3.23746 37.9315
O 6.59119 5.17333 37.6147
O 4.33199 6.67135 36.2889
O 6.54044 5.26034 34.9064
O 3.46474 3.64177 39.5836
O 2.76821 3.1516 36.9013
O 4.47711 2.13687 36.6801
O 6.0778 -0.317258 41.5282
Si 7.68736 -0.628992 41.7034
Si 4.50566 -0.78724 41.7036
O 5.41183 3.52827 39.1513
Si 6.90834 4.15766 38.9311
Si 4.62441 2.80535 40.6652
O 6.10033 0.215252 38.8317
Si 7.59761 0.928519 38.8963
Si 4.45998 0.302164 38.8471
O 8.15769 0.173292 40.2955
O 7.66558 2.62793 38.8414
O 8.11563 0.209616 37.4774
O 3.92891 -0.417841 40.2014
O 4.28727 1.87812 39.1338
O 3.90012 -0.016033 37.3589
O 5.11772 4.00282 41.9321
Si 6.08347 5.33314 41.7477
Si 4.4748 3.31206 43.4865
O 6.82284 5.12071 43.2491
O 4.87762 6.46613 41.4791
O 6.97626 4.98343 40.3834
O 4.61827 4.50654 44.6062
O 2.91994 3.15667 42.9496
O 4.47492 2.13395 42.2183
O 1.80466 5.65191 36.4551
Si 2.66641 7.04197 36.3504
Si 1.58983 4.04486 36.2794
O -1.74149 6.64236 34.4244
Si -2.50756 8.02187 33.9824
Si -1.35255 5.62787 35.6321
O 0.706523 6.16568 33.3309
Si 0.727932 7.73929 33.8579
Si 0.428936 4.5396 33.5168
O 1.86413 7.80183 35.0894
O -0.827024 8.37613 34.0294
O 1.38724 8.63559 32.6466
O 1.24685 3.80279 34.7215
O -0.786117 4.54113 34.5874
O 0.652262 3.87366 32.0704
O -2.68749 5.90168 36.8343
Si -3.81991 7.11881 36.7442
Si -2.10667 4.92832 38.3448
O -3.2096 7.93086 38.1031
O -5.26242 6.25423 36.6256
O -3.4498 7.99873 35.37
O -2.66436 4.43158 39.9967
O -2.26063 3.82549 37.1071
O -0.841345 5.23103 37.1947
O 2.35551 5.48155 42.0726
Si 3.23209 6.64901 41.3563
Si 1.81597 3.92785 42.0413
O -1.94957 6.25455 39.6017
Si -2.15141 7.86893 39.4214
Si -1.49477 5.28257 41.0954
O 1.37544 5.83583 39.0596
Si 1.17359 7.48354 39.1152
Si 0.802102 4.30554 39.2003
O 2.32083 7.58338 40.3383
O -0.429462 8.09022 39.2787
O 2.04337 7.77692 37.7168
O 1.45168 3.57209 40.4985
O -0.734734 4.67042 39.5409
O 0.803911 3.72545 37.6809
O -2.6657 5.9368 42.3459
Si -3.70369 7.20831 42.181
Si -2.22603 5.01941 43.8624
O -3.3601 7.99357 43.6333
O -5.14098 6.31824 42.0055
O -3.05297 8.02047 40.8494
O -3.12767 5.23462 45.2092
O -2.42809 3.59476 43.0534
O -0.979074 4.91911 42.673
O -4.8686 3.59177 36.2923
Si -6.01723 4.76052 36.4273
Si -3.3453 2.99495 36.2547
O -6.85371 0.872494 34.5084
Si -8.30743 0.492064 33.8081
Si -5.69069 0.516825 35.5636
O -5.27305 2.76779 33.442
Si -6.81002 3.40982 33.5992
Si -3.9241 1.78465 33.5806
O -6.79899 4.36996 34.9843
O -8.00374 2.19767 33.5506
O -6.77516 4.40655 32.2492
O -3.0446 2.46498 34.7639
O -4.44752 0.613148 34.5548
O -3.44566 1.72323 32.0451
O -6.45818 -0.616619 36.7289
Si -7.99856 -1.21565 36.5622
Si -5.44409 -0.390399 38.2879
O -8.62651 -0.466863 37.9437
O -7.60619 -2.85518 36.4411
O -8.62349 -0.452637 35.1916
O -5.16366 -1.03698 39.9616
O -4.30743 -0.84901 37.173
O -5.24714 0.915463 37.1459
O -4.84388 3.56183 41.9249
Si -5.91991 4.81381 41.9609
Si -3.36836 2.83999 41.9557
O -6.67507 0.189082 39.5121
Si -8.27842 0.450021 39.3158
Si -5.61202 0.384328 41.0036
O -5.25291 3.20152 39.0802
Si -6.88822 3.46957 39.2077
Si -3.95727 2.19078 39.095
O -6.81507 4.43424 40.5866
O -7.96285 2.14225 39.253
O -6.91551 4.33354 37.7702
O -3.06188 2.49054 40.4099
O -4.79389 0.857125 39.4477
O -3.36756 2.07259 37.5986
O -6.59068 -0.469219 42.2602
Si -8.0842 -1.14282 42.0885
Si -5.71454 -0.185432 43.8134
O -8.60584 -0.4525 43.5412
O -7.63886 -2.77307 41.9877
O -8.69585 -0.365794 40.7307
O -6.47069 -1.00089 45.0162
O -4.37353 -0.842068 43.0816
O -5.18446 0.913554 42.573
O -4.90257 -3.33355 36.2563
Si -6.39192 -4.02243 36.354
Si -3.85931 -2.08064 36.2318
O -2.80686 -5.91759 34.3914
Si -2.92361 -7.45209 33.7881
Si -2.09761 -4.91561 35.4393
O -4.20598 -3.91498 33.3683
Si -5.27957 -5.18251 33.5594
Si -2.90913 -2.8657 33.5046
O -6.21311 -4.8971 34.9275
O -4.46361 -6.6718 33.5645
O -6.22182 -4.87294 32.2039
O -3.2949 -1.88117 34.7379
O -1.8859 -3.67839 34.4421
O -2.77309 -2.35122 31.9904
O -1.29961 -5.97967 36.6563
Si -1.19944 -7.63402 36.5391
Si -1.22675 -4.88875 38.1892
O -2.11724 -7.96889 37.9189
O 0.476964 -7.83783 36.4474
O -2.11449 -8.02151 35.1728
O -0.436701 -4.81165 39.8065
O -0.345084 -4.14409 36.9944
O -2.33785 -4.30796 36.9963
O -4.92904 -3.16802 41.875
Si -6.3973 -3.91871 41.9313
Si -3.85929 -1.92064 41.9558
O -2.07105 -5.90743 39.4615
Si -2.87546 -7.32391 39.2794
Si -1.81404 -4.83757 40.9598
O -4.62966 -3.6999 39.0885
Si -5.38824 -5.17359 39.1577
Si -3.27751 -2.76694 39.1262
O -6.28753 -4.86365 40.5453
O -4.41013 -6.56876 39.1947
O -6.25225 -4.96088 37.7339
O -3.36528 -1.78394 40.4163
O -2.1786 -3.91357 39.4214
O -2.99104 -2.29132 37.605
O -1.42727 -6.08798 42.2218
Si -1.35958 -7.72759 42.0518
Si -1.34041 -5.17067 43.7801
O -2.16662 -8.02945 43.5
O 0.311394 -7.93498 41.9365
O -2.29525 -8.01483 40.6943
O -0.900809 -6.22002 44.9613
O -0.181887 -4.15903 43.1759
O -2.07291 -4.22337 42.5284
O 1.90875 -5.49214 47.461
Si 2.01398 -7.13797 47.4679
Si 1.13577 -4.04527 47.4882
O 5.49671 -5.5313 46.1365
Si 6.53028 -5.49058 44.8005
Si 4.36744 -4.62172 46.8655
O 2.52636 -5.30674 44.5572
Si 3.42881 -6.6899 44.6075
Si 2.37602 -3.67333 44.7971
O 2.91201 -7.36723 46.0599
O 5.08085 -6.37448 44.3721
O 2.74499 -7.46812 43.2993
O 1.35415 -3.40612 46.0258
O 3.68416 -3.69067 45.7427
O 1.9712 -3.31884 43.2766
O 5.61056 -3.70158 47.7934
Si 7.24571 -3.8522 47.5598
Si 4.65781 -2.94419 49.2101
O 7.26669 -4.76986 49.004
O 7.8636 -2.29333 47.3919
O 7.34958 -4.77913 46.1542
O 5.00065 -1.99729 50.699
O 4.25076 -2.16117 47.8081
O 3.75199 -4.15356 48.3672
O 1.74573 -5.57716 53.0472
Si 1.8399 -7.22692 53.014
Si 1.08422 -4.08113 53.2457
O 5.36357 -3.95625 50.5632
Si 6.41212 -5.20789 50.4067
Si 4.51805 -3.13907 52.0569
O 2.34638 -5.4557 50.3024
Si 3.44424 -6.70268 50.2923
Si 1.97796 -3.85601 50.387
O 2.78952 -7.45401 51.6482
O 5.11121 -6.33279 50.355
O 2.92978 -7.3872 48.8492
O 1.10586 -3.5495 51.7162
O 3.48172 -3.2872 50.5637
O 1.58266 -3.36792 48.8964
O 5.80036 -3.38638 53.3458
Si 7.35617 -3.87498 53.1427
Si 4.93495 -3.10284 54.9136
O 7.35062 -4.75963 54.5908
O 7.98008 -2.29793 52.9414
O 7.28439 -4.8704 51.7989
O 5.60247 -3.36639 56.3758
O 4.71737 -1.5906 54.2804
O 3.8235 -3.42038 53.6248
O 6.00913 -0.302882 47.0989
Si 7.61258 -0.634376 47.2235
Si 4.4352 -0.739166 47.0901
O 5.94909 3.11475 45.3303
Si 6.97173 4.25162 44.6825
Si 4.65034 2.78427 46.2302
O 5.82793 0.666755 44.2271
Si 7.452 1.0049 44.4472
Si 4.16257 0.53756 44.3751
O 8.00638 0.159654 45.7918
O 7.71479 2.68342 44.4975
O 8.06078 0.249354 43.0782
O 3.87255 -0.493084 45.5979
O 3.79745 1.85703 45.2278
O 3.77417 0.141396 42.8576
O 4.69006 4.10166 47.4867
Si 5.58153 5.50011 47.381
Si 4.05387 3.2375 49.025
O 6.59116 5.17335 48.7081
O 4.33196 6.67135 47.3823
O 6.54043 5.26032 45.9998
O 3.46472 3.64183 50.677
O 2.76819 3.15166 47.9947
O 4.47707 2.13688 47.7736
O 6.07769 -0.317186 52.6218
Si 7.68725 -0.628932 52.7969
Si 4.50555 -0.787186 52.797
O 5.4118 3.5283 50.2448
Si 6.90831 4.15768 50.0246
Si 4.6244 2.8054 51.7587
O 6.10025 0.215285 49.9251
Si 7.59754 0.928537 49.9897
Si 4.4599 0.302211 49.9405
O 8.1576 0.173323 51.3889
O 7.66553 2.62795 49.9348
O 8.11554 0.209589 48.5708
O 3.92884 -0.417846 51.2948
O 4.28722 1.87817 50.2273
O 3.90003 -0.0159883 48.4524
O 5.11773 4.00287 53.0255
Si 6.08348 5.33319 52.8412
Si 4.47484 3.31211 54.58
O 6.82284 5.12078 54.3425
O 4.87764 6.46618 52.5725
O 6.97626 4.98346 51.4768
O 4.61827 4.5066 55.6997
O 2.91997 3.15672 54.043
O 4.47495 2.134 53.3118
O 1.80461 5.65195 47.5486
Si 2.66639 7.042 47.4438
Si 1.58979 4.0449 47.3728
O -1.74152 6.64235 45.5179
Si -2.50759 8.02186 45.0759
Si -1.3526 5.62784 46.7255
O 0.706465 6.16569 44.4243
Si 0.727894 7.73929 44.9513
Si 0.428889 4.53961 44.6103
O 1.8641 7.80185 46.1828
O -0.827061 8.37613 45.1229
O 1.38718 8.6356 43.7401
O 1.2468 3.8028 45.815
O -0.786153 4.54111 45.6809
O 0.65226 3.87366 43.1639
O -2.68751 5.90169 47.9278
Si -3.81991 7.11884 47.8377
Si -2.10666 4.92835 49.4383
O -3.2096 7.93089 49.1965
O -5.26242 6.25426 47.7191
O -3.44982 7.99874 46.4635
O -2.66433 4.43162 51.0902
O -2.26059 3.82543 48.2006
O -0.841362 5.23104 48.2882
O 2.35554 5.48161 53.166
Si 3.23211 6.64908 52.4497
Si 1.81601 3.92791 53.1347
O -1.94955 6.25459 50.6952
Si -2.1514 7.86897 50.5149
Si -1.49473 5.28263 52.1889
O 1.37545 5.83587 50.153
Si 1.17359 7.48358 50.2086
Si 0.802121 4.30559 50.2938
O 2.32084 7.58344 51.4317
O -0.429456 8.09026 50.3721
O 2.04336 7.77695 48.8103
O 1.45172 3.57214 51.592
O -0.734711 4.67046 50.6344
O 0.803902 3.72549 48.7744
O -2.66569 5.93684 53.4393
Si -3.70369 7.20834 53.2744
Si -2.22601 5.01945 54.9559
O -3.36011 7.99362 54.7268
O -5.14096 6.31826 53.099