2688
 Atoms. Timestep: 36717
O 22.913 4.87152 3.41351
Si 24.5578 4.8243 3.40121
Si 21.3818 4.29511 3.39149
O 23.3985 1.10185 3.4136
Si 24.9776 1.56431 3.40122
Si 21.7712 1.27133 3.39158
O 25.5065 0.766131 4.77735
O 25.1488 3.24338 3.40017
O 25.5065 0.765836 2.02573
O 21.2658 0.853648 4.8633
O 21.277 2.74464 3.02993
O 21.2789 0.421018 2.11163
O 21.5265 9.25452 0.661412
Si 23.149 9.52773 0.649498
Si 20.1365 8.3915 0.639514
O 22.7343 5.65058 0.66197
Si 24.1934 6.4111 0.649525
Si 21.1051 5.50079 0.639813
O 24.8671 5.73085 2.02577
O 24.0355 8.09148 0.648386
O 24.8672 5.73035 37.7974
O 20.6902 4.99302 2.11152
O 20.3344 6.85016 0.27804
O 20.7872 4.57101 37.8833
O 19.3144 13.2847 3.41362
Si 20.8529 13.8681 3.40126
Si 18.1191 12.1675 3.39162
O 21.2003 9.98381 3.41356
Si 22.4835 11.0138 3.40118
Si 19.6313 9.5204 3.39119
O 23.2765 10.4771 4.77739
O 22.0017 12.6315 3.40012
O 23.2766 10.4768 2.02564
O 19.3227 8.94196 4.86289
O 18.6136 10.6946 3.0291
O 19.4998 8.5466 2.11138
O 16.3597 16.8063 0.662109
Si 17.755 17.6784 0.649939
Si 15.4051 15.4776 0.640033
O 18.8527 13.936 0.662065
Si 19.9106 15.1963 0.649612
Si 17.4039 13.176 0.639968
O 20.7929 14.8243 2.02585
O 19.1228 16.6892 0.648621
O 20.7931 14.8239 37.7975
O 17.2135 12.549 2.11183
O 16.1773 14.1295 0.277119
O 17.4649 12.1951 37.8837
O 12.775 19.6842 3.41348
Si 13.9733 20.8117 3.40149
Si 12.0983 18.1946 3.39161
O 15.78 17.3551 3.41415
Si 16.5717 18.7976 3.40163
Si 14.5073 16.3271 3.39171
O 17.5097 18.6046 4.77788
O 15.5077 20.1081 3.40039
O 17.51 18.6042 2.02617
O 14.4425 15.6754 4.86369
O 13.1187 17.0234 3.02837
O 14.7584 15.3768 2.11217
O 8.69691 21.8053 0.662034
Si 9.6518 23.1453 0.649776
Si 8.32471 20.2122 0.63998
O 12.0998 20.109 0.662168
Si 12.5942 21.6785 0.649841
Si 11.0524 18.8522 0.639942
O 13.5519 21.6723 2.02613
O 11.2944 22.7556 0.648762
O 13.5523 21.672 37.7977
O 11.1157 18.2006 2.1119
O 9.55472 19.2637 0.276064
O 11.484 17.9693 37.8838
O 4.28241 23.0859 3.41387
Si 4.95657 24.5868 3.40173
Si 4.22931 21.4507 3.3917
O 7.95183 22.0892 3.41375
Si 8.12946 23.725 3.40146
Si 7.17056 20.6518 3.39164
O 9.06998 23.9065 4.77762
O 6.64366 24.5264 3.40052
O 9.07018 23.9064 2.0259
O 7.35975 20.0256 4.86385
O 5.62135 20.762 3.02744
O 7.76698 19.8705 2.11219
O -0.297449 23.477 0.661727
Si 0.069755 25.0809 0.649833
Si -0.0290288 21.8632 0.639709
O 3.49645 23.2183 0.66239
Si 3.35012 24.8572 0.650063
Si 3.01169 21.6558 0.640039
O 4.2367 25.2194 2.02634
O 1.73604 25.3521 0.648814
O 4.23741 25.2193 37.7981
O 3.31968 21.0787 2.1122
O 1.47098 21.4604 0.275617
O 3.7495 21.0064 37.884
O -4.865 22.9621 3.41363
Si -4.81915 24.6069 3.40112
Si -4.28544 21.4322 3.3914
O -1.09383 23.4526 3.41375
Si -1.55858 25.031 3.4015
Si -1.26311 21.8254 3.39141
O -0.760077 25.5601 4.77773
O -3.23838 25.1996 3.40022
O -0.759624 25.56 2.02603
O -0.848102 21.32 4.86362
O -2.73568 21.3321 3.02689
O -0.412409 21.3334 2.11193
O -9.24275 21.5611 0.662022
Si -9.52007 23.183 0.649606
Si -8.37472 20.1744 0.639618
O -5.64108 22.7817 0.661716
Si -6.40605 24.2384 0.649447
Si -5.48815 21.1528 0.639709
O -5.72678 24.9139 2.02559
O -8.08626 24.0743 0.648421
O -5.72641 24.914 37.7974
O -4.98201 20.7389 2.112
O -6.83524 20.3798 0.275409
O -4.55735 20.8374 37.8836
O -13.2615 19.3302 3.41402
Si -13.8509 20.8665 3.40132
Si -12.139 18.14 3.39136
O -9.96864 21.2319 3.41352
Si -11.0039 22.5108 3.40128
Si -9.49967 19.6646 3.3913
O -10.4702 23.3062 4.77744
O -12.6194 22.0211 3.40013
O -10.4698 23.3064 2.02586
O -8.92197 19.3579 4.86353
O -10.6694 18.6427 3.02738
O -8.52518 19.5376 2.11174
O -16.7667 16.3569 0.662096
Si -17.6452 17.7483 0.649461
Si -15.4335 15.4087 0.639689
O -13.9093 18.865 0.66161
Si -15.1744 19.9171 0.649614
Si -13.1427 17.4197 0.639687
O -14.8067 20.8014 2.0258
O -16.6631 19.1213 0.648459
O -14.8063 20.8019 37.7977
O -12.5159 17.2323 2.11185
O -14.0899 16.1884 0.276402
O -12.1623 17.4858 37.8834
O -19.6248 12.7568 3.41401
Si -20.7577 13.9501 3.40115
Si -18.1324 12.0866 3.39147
O -17.3117 15.7738 3.4132
Si -18.7577 16.559 3.4011
Si -16.2777 14.5059 3.39132
O -18.5698 17.498 4.7773
O -20.0626 15.4882 3.40002
O -18.5696 17.4983 2.02565
O -15.6259 14.445 4.86339
O -16.9663 13.1132 3.02856
O -15.329 14.7621 2.11162
O -21.7273 8.66913 0.662037
Si -23.071 9.61887 0.649597
Si -20.133 8.30175 0.6397
O -20.046 12.0781 0.661377
Si -21.6172 12.567 0.649438
Si -18.7847 11.036 0.639739
O -21.6158 13.5245 2.02563
O -22.6887 11.2628 0.648482
O -21.6157 13.5251 37.7974
O -18.1335 11.1037 2.11182
O -19.1881 9.53536 0.277784
O -17.9041 11.4723 37.8834
O -22.9962 4.25083 3.41311
Si -24.4989 4.92127 3.40114
Si -21.3609 4.20018 3.39113
O -22.009 7.9211 3.4133
Si -23.6451 8.09532 3.40125
Si -20.5691 7.14427 3.39139
O -23.8301 9.03466 4.7775
O -24.4431 6.6081 3.40006
O -23.8299 9.03525 2.02585
O -19.943 7.33755 4.8633
O -20.6733 5.59384 3.02962
O -19.7901 7.74322 2.11153
O -23.3832 -0.329858 0.661989
Si -24.9875 0.0360348 0.649695
Si -21.7692 -0.0619728 0.64002
O -23.1274 3.46233 0.661494
Si -24.7663 3.31542 0.649483
Si -21.5641 2.97988 0.639467
O -25.1301 4.20098 2.02566
O -25.2603 1.7016 0.648426
O -25.1301 4.20142 37.7974
O -20.9873 3.2914 2.11121
O -21.3654 1.43858 0.278086
O -20.9161 3.71847 37.8829
O -22.8736 -4.8985 3.41304
Si -24.5184 -4.8512 3.40113
Si -21.3423 -4.32225 3.39134
O -23.3589 -1.12898 3.41387
Si -24.9381 -1.59127 3.4014
Si -21.7316 -1.29854 3.3917
O -25.4669 -0.793176 4.77761
O -25.1094 -3.2703 3.40021
O -25.4669 -0.792577 2.02599
O -21.2263 -0.881119 4.86352
O -21.2372 -2.77174 3.03
O -21.2394 -0.44804 2.11182
O -21.4868 -9.28142 0.662083
Si -23.1094 -9.55469 0.649738
Si -20.0968 -8.41847 0.640149
O -22.6949 -5.67756 0.662072
Si -24.154 -6.43813 0.649491
Si -21.0657 -5.52788 0.639688
O -24.8277 -5.75775 2.0257
O -23.996 -8.11851 0.648527
O -24.8277 -5.75733 37.7973
O -20.6508 -5.02012 2.11138
O -20.2951 -6.87734 0.278066
O -20.7477 -4.59821 37.8832
O -19.2745 -13.3114 3.41332
Si -20.8129 -13.8949 3.40138
Si -18.0793 -12.1942 3.39151
O -21.1605 -10.0107 3.41414
Si -22.4438 -11.0407 3.40145
Si -19.5915 -9.54721 3.39184
O -23.2367 -10.5043 4.77777
O -21.9618 -12.6584 3.40029
O -23.2369 -10.5036 2.02597
O -19.2829 -8.96888 4.86362
O -18.5737 -10.7212 3.02938
O -19.4603 -8.57328 2.11209
O -16.3196 -16.8328 0.662249
Si -17.7148 -17.705 0.649922
Si -15.365 -15.5041 0.640188
O -18.8127 -13.9628 0.662232
Si -19.8706 -15.223 0.649739
Si -17.364 -13.2027 0.639865
O -20.7529 -14.8511 2.02602
O -19.0827 -16.7159 0.648699
O -20.7531 -14.8507 37.7976
O -17.1737 -12.5757 2.11174
O -16.1373 -14.1561 0.277177
O -17.425 -12.2218 37.8836
O -12.7347 -19.7103 3.41314
Si -13.9329 -20.838 3.40141
Si -12.0579 -18.2208 3.39132
O -15.7398 -17.3816 3.4141
Si -16.5315 -18.8241 3.40158
Si -14.4672 -16.3535 3.39187
O -17.4694 -18.6312 4.77791
O -15.4675 -20.1346 3.4003
O -17.4699 -18.6307 2.02615
O -14.4024 -15.7018 4.86382
O -13.0783 -17.0493 3.02851
O -14.7183 -15.4033 2.11233
O -8.6567 -21.832 0.661874
Si -9.61153 -23.172 0.649451
Si -8.28451 -20.2389 0.63966
O -12.0596 -20.1353 0.662227
Si -12.5538 -21.7048 0.649761
Si -11.0121 -18.8787 0.639658
O -13.5114 -21.6986 2.02607
O -11.254 -22.782 0.648563
O -13.5117 -21.6983 37.7976
O -11.0754 -18.2269 2.11157
O -9.51453 -19.2905 0.275623
O -11.4437 -17.9957 37.8836
O -4.24197 -23.1128 3.41367
Si -4.91621 -24.6138 3.40136
Si -4.18926 -21.4777 3.39142
O -7.91184 -22.1161 3.41352
Si -8.08922 -23.7519 3.40112
Si -7.13054 -20.6787 3.39134
O -9.02968 -23.9333 4.77732
O -6.60335 -24.5533 3.40022
O -9.03002 -23.9332 2.02559
O -7.31951 -20.0525 4.86351
O -5.58137 -20.7891 3.0271
O -7.72689 -19.8974 2.11192
O 0.337828 -23.5035 0.662445
Si -0.0293083 -25.1074 0.650105
Si 0.0692791 -21.8897 0.640249
O -3.45628 -23.245 0.662122
Si -3.30972 -24.8839 0.649705
Si -2.97148 -21.6825 0.639752
O -4.19638 -25.2462 2.02591
O -1.6956 -25.3786 0.648776
O -4.19679 -25.2462 37.7976
O -3.27965 -21.1056 2.11192
O -1.43069 -21.4874 0.275609
O -3.70928 -21.0333 37.8836
O 4.90531 -22.9886 3.41323
Si 4.85953 -24.6334 3.40122
Si 4.32568 -21.4587 3.3911
O 1.13422 -23.4792 3.41446
Si 1.59896 -25.0576 3.40178
Si 1.30334 -21.8519 3.39191
O 0.800752 -25.5866 4.77816
O 3.27878 -25.2262 3.40038
O 0.799795 -25.5866 2.02643
O 0.888553 -21.3466 4.86421
O 2.7758 -21.3585 3.02691
O 0.452288 -21.36 2.1126
O 9.28314 -21.5877 0.662884
Si 9.5603 -23.2096 0.649873
Si 8.41506 -20.2011 0.64003
O 5.68127 -22.8084 0.661895
Si 6.44635 -24.2651 0.649561
Si 5.52848 -21.1796 0.639459
O 5.76709 -24.9405 2.02568
O 8.12653 -24.1009 0.648529
O 5.76679 -24.9405 37.7975
O 5.0223 -20.7654 2.11166
O 6.87579 -20.407 0.275217
O 4.59781 -20.864 37.8833
O 13.3016 -19.357 3.41409
Si 13.8911 -20.8932 3.40135
Si 12.1794 -18.1666 3.39164
O 10.009 -21.2584 3.41363
Si 11.0441 -22.5374 3.40153
Si 9.53994 -19.691 3.39168
O 10.5105 -23.3327 4.77773
O 12.6596 -22.0478 3.40034
O 10.5099 -23.3332 2.02624
O 8.96234 -19.3846 4.864
O 10.7095 -18.6689 3.0279
O 8.56534 -19.5642 2.11213
O 16.8076 -16.3843 0.662198
Si 17.686 -17.7757 0.649648
Si 15.4744 -15.4359 0.639933
O 13.9499 -18.8917 0.662006
Si 15.2148 -19.944 0.649668
Si 13.1833 -17.4464 0.639955
O 14.847 -20.8283 2.02586
O 16.7037 -19.1485 0.648618
O 14.8465 -20.8287 37.7977
O 12.5565 -17.2589 2.11213
O 14.1306 -16.2152 0.276626
O 12.2028 -17.5123 37.8837
O 19.6658 -12.7841 3.41363
Si 20.7987 -13.9775 3.40128
Si 18.1734 -12.1138 3.39131
O 17.3528 -15.8012 3.41338
Si 18.7987 -16.5865 3.40129
Si 16.3189 -14.5332 3.3916
O 18.6108 -17.5255 4.77755
O 20.1035 -15.5157 3.40022
O 18.6104 -17.526 2.02591
O 15.6671 -14.4721 4.86368
O 17.0072 -13.1404 3.02877
O 15.3701 -14.7893 2.11188
O 21.7684 -8.69661 0.661728
Si 23.1121 -9.64636 0.649662
Si 20.1741 -8.32932 0.639636
O 20.0869 -12.1055 0.661465
Si 21.658 -12.5944 0.649599
Si 18.8256 -11.0634 0.639643
O 21.6567 -13.5519 2.02575
O 22.7296 -11.2903 0.648562
O 21.6565 -13.5524 37.7976
O 18.1742 -11.1311 2.1116
O 19.2291 -9.56283 0.277703
O 17.9452 -11.4995 37.8832
O 23.0367 -4.27811 3.41357
Si 24.5394 -4.94846 3.40132
Si 21.4013 -4.22751 3.39165
O 22.0499 -7.94839 3.41312
Si 23.6861 -8.12266 3.40132
Si 20.61 -7.17169 3.39131
O 23.8711 -9.06208 4.77752
O 24.4839 -6.63532 3.40021
O 23.8709 -9.06264 2.02594
O 19.9839 -7.3652 4.8632
O 20.7139 -5.62112 3.02994
O 19.8311 -7.77066 2.1114
O 23.4228 0.302672 0.661777
Si 25.0272 -0.0629761 0.649544
Si 21.8088 0.0347605 0.639907
O 23.1677 -3.48932 0.661687
Si 24.8066 -3.34237 0.649641
Si 21.6043 -3.00708 0.639972
O 25.1705 -4.22794 2.02585
O 25.3003 -1.72846 0.648435
O 25.1704 -4.22847 37.7976
O 21.0276 -3.31873 2.11178
O 21.4049 -1.46589 0.278465
O 20.9564 -3.74581 37.8834
O 22.913 4.87151 8.91685
Si 24.5578 4.82431 8.90455
Si 21.3818 4.29512 8.89484
O 23.3985 1.10184 8.91694
Si 24.9776 1.56432 8.90456
Si 21.7712 1.27133 8.89491
O 25.5065 0.766124 10.2807
O 25.1488 3.2434 8.9035
O 25.5065 0.76583 7.52907
O 21.2658 0.853644 10.3667
O 21.277 2.74465 8.53327
O 21.2789 0.421008 7.61495
O 21.5264 9.25452 6.16475
Si 23.149 9.52773 6.15283
Si 20.1365 8.3915 6.14285
O 22.7343 5.65059 6.16531
Si 24.1934 6.41109 6.15287
Si 21.1051 5.50079 6.14316
O 24.8671 5.73085 7.52912
O 24.0355 8.09148 6.15173
O 24.8672 5.73035 4.7774
O 20.6902 4.99302 7.61486
O 20.3344 6.85016 5.78138
O 20.7872 4.57102 4.86329
O 19.3144 13.2847 8.91696
Si 20.8529 13.8681 8.90461
Si 18.1191 12.1675 8.89497
O 21.2003 9.98381 8.91689
Si 22.4835 11.0138 8.90453
Si 19.6313 9.5204 8.89452
O 23.2765 10.4771 10.2807
O 22.0017 12.6315 8.90346
O 23.2766 10.4768 7.52898
O 19.3227 8.94195 10.3662
O 18.6136 10.6946 8.53244
O 19.4998 8.5466 7.61471
O 16.3597 16.8063 6.16545
Si 17.755 17.6784 6.15328
Si 15.4051 15.4776 6.14338
O 18.8527 13.936 6.16541
Si 19.9106 15.1963 6.15296
Si 17.4039 13.176 6.14332
O 20.7929 14.8243 7.5292
O 19.1228 16.6892 6.15196
O 20.7931 14.8239 4.77743
O 17.2135 12.549 7.61517
O 16.1773 14.1295 5.78045
O 17.4649 12.1951 4.86364
O 12.775 19.6842 8.91682
Si 13.9733 20.8117 8.90483
Si 12.0983 18.1946 8.89495
O 15.78 17.3551 8.91749
Si 16.5717 18.7976 8.90498
Si 14.5074 16.3271 8.89505
O 17.5097 18.6046 10.2812
O 15.5077 20.1081 8.90373
O 17.51 18.6042 7.52951
O 14.4425 15.6754 10.367
O 13.1187 17.0234 8.53171
O 14.7584 15.3768 7.61551
O 8.69691 21.8053 6.16537
Si 9.65181 23.1453 6.15312
Si 8.32471 20.2122 6.14332
O 12.0998 20.109 6.16551
Si 12.5942 21.6785 6.15317
Si 11.0524 18.8522 6.14328
O 13.5518 21.6723 7.52947
O 11.2943 22.7556 6.1521
O 13.5523 21.6719 4.77763
O 11.1157 18.2006 7.61524
O 9.55473 19.2637 5.7794
O 11.484 17.9693 4.86376
O 4.28241 23.0859 8.91721
Si 4.95657 24.5868 8.90506
Si 4.22931 21.4507 8.89503
O 7.95183 22.0892 8.91708
Si 8.12947 23.725 8.9048
Si 7.17056 20.6518 8.89498
O 9.06997 23.9065 10.281
O 6.64367 24.5264 8.90386
O 9.07017 23.9064 7.52924
O 7.35975 20.0256 10.3672
O 5.62136 20.762 8.53078
O 7.76698 19.8705 7.61554
O -0.297455 23.477 6.16507
Si 0.0697602 25.0809 6.15319
Si -0.0290196 21.8631 6.14306
O 3.49644 23.2183 6.16573
Si 3.35012 24.8572 6.1534
Si 3.01169 21.6558 6.14338
O 4.2367 25.2194 7.52968
O 1.73605 25.3521 6.15215
O 4.23741 25.2193 4.77801
O 3.31968 21.0787 7.61553
O 1.47099 21.4604 5.77895
O 3.7495 21.0064 4.86395
O -4.86502 22.9621 8.91697
Si -4.81913 24.6069 8.90447
Si -4.28542 21.4322 8.89474
O -1.09385 23.4526 8.91709
Si -1.55856 25.031 8.90485
Si -1.2631 21.8254 8.89477
O -0.760081 25.5601 10.2811
O -3.23834 25.1996 8.90355
O -0.759641 25.56 7.52938
O -0.848103 21.32 10.3669
O -2.73565 21.3321 8.53023
O -0.412423 21.3334 7.61528
O -9.24274 21.5611 6.16536
Si -9.52008 23.183 6.15294
Si -8.37473 20.1744 6.14296
O -5.64107 22.7817 6.16506
Si -6.40605 24.2384 6.15276
Si -5.48814 21.1528 6.14304
O -5.72679 24.9139 7.52893
O -8.08627 24.0743 6.15177
O -5.72639 24.914 4.77734
O -4.98202 20.7389 7.61533
O -6.83525 20.3798 5.77876
O -4.55733 20.8373 4.86356
O -13.2615 19.3302 8.91736
Si -13.8509 20.8665 8.90466
Si -12.139 18.14 8.89471
O -9.96863 21.2319 8.91686
Si -11.0039 22.5108 8.90462
Si -9.49966 19.6646 8.89464
O -10.4702 23.3062 10.2808
O -12.6194 22.0211 8.90347
O -10.4698 23.3064 7.5292
O -8.92198 19.3579 10.3669
O -10.6694 18.6427 8.53072
O -8.52517 19.5376 7.61507
O -16.7667 16.3569 6.16543
Si -17.6452 17.7483 6.15279
Si -15.4335 15.4087 6.14302
O -13.9093 18.865 6.16495
Si -15.1744 19.9171 6.15296
Si -13.1427 17.4197 6.14303
O -14.8067 20.8014 7.52914
O -16.6632 19.1213 6.15179
O -14.8063 20.8019 4.77763
O -12.5159 17.2323 7.61519
O -14.0899 16.1884 5.77974
O -12.1623 17.4858 4.86336
O -19.6248 12.7568 8.91735
Si -20.7577 13.9501 8.90448
Si -18.1324 12.0865 8.8948
O -17.3117 15.7738 8.91654
Si -18.7577 16.5589 8.90443
Si -16.2777 14.5059 8.89466
O -18.5699 17.498 10.2806
O -20.0626 15.4882 8.90336
O -18.5696 17.4984 7.52898
O -15.6259 14.445 10.3667
O -16.9663 13.1132 8.53191
O -15.329 14.7621 7.61494
O -21.7273 8.66912 6.16538
Si -23.071 9.61888 6.15296
Si -20.133 8.30176 6.14305
O -20.046 12.0781 6.16471
Si -21.6172 12.567 6.1528
Si -18.7847 11.036 6.14309
O -21.6158 13.5246 7.52898
O -22.6886 11.2629 6.1518
O -21.6157 13.525 4.77739
O -18.1334 11.1037 7.61516
O -19.1881 9.53537 5.78112
O -17.9041 11.4723 4.86334
O -22.9962 4.25081 8.91645
Si -24.4989 4.92128 8.90449
Si -21.3609 4.20019 8.89446
O -22.009 7.92111 8.91664
Si -23.6451 8.09532 8.9046
Si -20.5691 7.14427 8.89473
O -23.83 9.03465 10.2808
O -24.4431 6.60812 8.90339
O -23.8299 9.03523 7.52921
O -19.943 7.33755 10.3666
O -20.6733 5.59385 8.53296
O -19.7901 7.74321 7.61488
O -23.3832 -0.329849 6.16532
Si -24.9875 0.036022 6.15305
Si -21.7692 -0.0619732 6.14337
O -23.1274 3.46234 6.16483
Si -24.7663 3.31541 6.15282
Si -21.5641 2.97987 6.14281
O -25.1302 4.201 7.52901
O -25.2603 1.70158 6.15175
O -25.1301 4.20142 4.77736
O -20.9873 3.29141 7.61456
O -21.3654 1.43857 5.78143
O -20.9161 3.71848 4.86287
O -22.8736 -4.89851 8.91638
Si -24.5184 -4.85121 8.90448
Si -21.3423 -4.32223 8.89469
O -23.3589 -1.12899 8.91721
Si -24.9381 -1.59125 8.90474
Si -21.7316 -1.29852 8.89504
O -25.4669 -0.793193 10.2809
O -25.1094 -3.27028 8.90354
O -25.4669 -0.792588 7.52934
O -21.2263 -0.881123 10.3669
O -21.2372 -2.77173 8.53334
O -21.2394 -0.448043 7.61517
O -21.4868 -9.28141 6.16542
Si -23.1094 -9.55469 6.1531
Si -20.0968 -8.41848 6.1435
O -22.6949 -5.67756 6.16541
Si -24.154 -6.43813 6.15283
Si -21.0657 -5.52788 6.14302
O -24.8277 -5.75775 7.52903
O -23.996 -8.11852 6.15185
O -24.8277 -5.75733 4.77731
O -20.6508 -5.02013 7.61471
O -20.2951 -6.87734 5.7814
O -20.7477 -4.59822 4.86311
O -19.2745 -13.3114 8.91667
Si -20.8129 -13.8949 8.90472
Si -18.0793 -12.1942 8.89484
O -21.1605 -10.0107 8.91747
Si -22.4438 -11.0407 8.90478
Si -19.5915 -9.54721 8.89518
O -23.2367 -10.5043 10.2811
O -21.9619 -12.6584 8.90363
O -23.2369 -10.5036 7.52932
O -19.2829 -8.96887 10.367
O -18.5737 -10.7212 8.53272
O -19.4603 -8.57329 7.61543
O -16.3196 -16.8328 6.16559
Si -17.7148 -17.705 6.15326
Si -15.365 -15.5041 6.14353
O -18.8127 -13.9628 6.16557
Si -19.8706 -15.223 6.15308
Si -17.364 -13.2026 6.1432
O -20.7529 -14.8511 7.52937
O -19.0827 -16.7159 6.15203
O -20.7531 -14.8506 4.77756
O -17.1737 -12.5757 7.61506
O -16.1373 -14.1561 5.78053
O -17.425 -12.2218 4.86352
O -12.7347 -19.7103 8.91648
Si -13.9329 -20.838 8.90477
Si -12.0579 -18.2208 8.89467
O -15.7398 -17.3816 8.91744
Si -16.5315 -18.8241 8.90494
Si -14.4672 -16.3535 8.89521
O -17.4694 -18.6312 10.2813
O -15.4675 -20.1346 8.90363
O -17.4699 -18.6307 7.5295
O -14.4024 -15.7018 10.3672
O -13.0783 -17.0493 8.53185
O -14.7183 -15.4033 7.61567
O -8.65671 -21.832 6.16521
Si -9.61152 -23.172 6.15278
Si -8.28451 -20.2389 6.14299
O -12.0596 -20.1353 6.16557
Si -12.5538 -21.7048 6.15311
Si -11.0121 -18.8787 6.143
O -13.5114 -21.6986 7.52942
O -11.254 -22.782 6.1519
O -13.5117 -21.6983 4.77754
O -11.0754 -18.2269 7.61492
O -9.51452 -19.2905 5.77897
O -11.4437 -17.9956 4.86353
O -4.24199 -23.1128 8.91701
Si -4.91619 -24.6138 8.90471
Si -4.18925 -21.4777 8.89477
O -7.91185 -22.1161 8.91686
Si -8.08921 -23.7519 8.90445
Si -7.13053 -20.6787 8.89467
O -9.02969 -23.9334 10.2807
O -6.60332 -24.5533 8.90356
O -9.03003 -23.9332 7.52892
O -7.31951 -20.0525 10.3669
O -5.58135 -20.7891 8.53044
O -7.7269 -19.8974 7.61526
O 0.337832 -23.5034 6.16579
Si -0.0293138 -25.1074 6.15345
Si 0.0692741 -21.8897 6.14359
O -3.45628 -23.245 6.16546
Si -3.30972 -24.8839 6.15307
Si -2.97148 -21.6825 6.1431
O -4.19639 -25.2462 7.52926
O -1.6956 -25.3786 6.1521
O -4.19677 -25.2462 4.77755
O -3.27965 -21.1055 7.61526
O -1.43069 -21.4874 5.77894
O -3.70927 -21.0333 4.86359
O 4.90531 -22.9886 8.91657
Si 4.85953 -24.6334 8.90457
Si 4.32568 -21.4587 8.89443
O 1.13421 -23.4792 8.9178
Si 1.59897 -25.0576 8.90512
Si 1.30335 -21.8519 8.89524
O 0.800752 -25.5866 10.2815
O 3.27878 -25.2262 8.90371
O 0.799801 -25.5866 7.52977
O 0.888553 -21.3466 10.3675
O 2.77581 -21.3585 8.53025
O 0.452292 -21.36 7.61595
O 9.28314 -21.5877 6.16622
Si 9.56031 -23.2096 6.15322
Si 8.41505 -20.2011 6.14338
O 5.68127 -22.8084 6.16523
Si 6.44634 -24.2651 6.15291
Si 5.52848 -21.1796 6.14281
O 5.76708 -24.9405 7.52902
O 8.12654 -24.1009 6.15186
O 5.76679 -24.9405 4.77742
O 5.0223 -20.7654 7.615
O 6.87579 -20.407 5.77856
O 4.59781 -20.864 4.86326
O 13.3016 -19.357 8.91743
Si 13.8911 -20.8932 8.90469
Si 12.1794 -18.1666 8.89498
O 10.009 -21.2584 8.91697
Si 11.044 -22.5374 8.90488
Si 9.53994 -19.691 8.89503
O 10.5105 -23.3327 10.2811
O 12.6596 -22.0478 8.90368
O 10.5099 -23.3331 7.52959
O 8.96234 -19.3846 10.3673
O 10.7095 -18.6689 8.53124
O 8.56535 -19.5642 7.61547
O 16.8075 -16.3843 6.16554
Si 17.686 -17.7757 6.15299
Si 15.4745 -15.4359 6.14327
O 13.9499 -18.8917 6.16535
Si 15.2148 -19.944 6.15299
Si 13.1833 -17.4464 6.14328
O 14.847 -20.8283 7.5292
O 16.7037 -19.1485 6.15196
O 14.8465 -20.8287 4.77762
O 12.5565 -17.259 7.61547
O 14.1306 -16.2152 5.77997
O 12.2028 -17.5123 4.86365
O 19.6658 -12.7841 8.91697
Si 20.7987 -13.9775 8.90462
Si 18.1734 -12.1138 8.89465
O 17.3528 -15.8012 8.91671
Si 18.7987 -16.5865 8.90464
Si 16.3189 -14.5332 8.89494
O 18.6108 -17.5255 10.2809
O 20.1035 -15.5157 8.90356
O 18.6104 -17.526 7.52925
O 15.6671 -14.4721 10.367
O 17.0072 -13.1404 8.53211
O 15.3701 -14.7893 7.61522
O 21.7684 -8.69661 6.16507
Si 23.1121 -9.64636 6.15301
Si 20.1741 -8.32932 6.14299
O 20.0869 -12.1055 6.1648
Si 21.658 -12.5944 6.15294
Si 18.8256 -11.0634 6.14298
O 21.6567 -13.5519 7.52909
O 22.7296 -11.2903 6.1519
O 21.6565 -13.5524 4.77759
O 18.1742 -11.1311 7.61494
O 19.2291 -9.56284 5.78104
O 17.9452 -11.4995 4.86312
O 23.0367 -4.2781 8.91691
Si 24.5394 -4.94847 8.90467
Si 21.4013 -4.22752 8.89498
O 22.05 -7.94839 8.91646
Si 23.6861 -8.12266 8.90467
Si 20.61 -7.1717 8.89466
O 23.8711 -9.06208 10.2809
O 24.4839 -6.63534 8.90355
O 23.8709 -9.06262 7.52928
O 19.9839 -7.3652 10.3665
O 20.7138 -5.62114 8.53328
O 19.8311 -7.77066 7.61474
O 23.4228 0.302667 6.16512
Si 25.0272 -0.062972 6.15287
Si 21.8088 0.0347674 6.14324
O 23.1677 -3.48932 6.16503
Si 24.8066 -3.34237 6.15297
Si 21.6043 -3.00708 6.14331
O 25.1705 -4.22794 7.52919
O 25.3003 -1.72846 6.15178
O 25.1704 -4.22848 4.77756
O 21.0276 -3.31872 7.61511
O 21.405 -1.46589 5.78182
O 20.9564 -3.74582 4.86335
O 22.913 4.87152 14.4202
Si 24.5578 4.8243 14.4079
Si 21.3818 4.29512 14.3982
O 23.3985 1.10185 14.4203
Si 24.9776 1.56431 14.4079
Si 21.7712 1.27133 14.3983
O 25.5065 0.766132 15.784
O 25.1488 3.24339 14.4068
O 25.5065 0.765838 13.0324
O 21.2658 0.85365 15.87
O 21.277 2.74464 14.0366
O 21.2789 0.421014 13.1183
O 21.5264 9.25452 11.6681
Si 23.149 9.52773 11.6562
Si 20.1365 8.3915 11.6462
O 22.7343 5.65059 11.6686
Si 24.1934 6.41109 11.6562
Si 21.1051 5.50079 11.6465
O 24.8671 5.73085 13.0325
O 24.0355 8.09147 11.6551
O 24.8672 5.73035 10.2807
O 20.6902 4.99302 13.1182
O 20.3344 6.85015 11.2847
O 20.7872 4.57102 10.3666
O 19.3144 13.2847 14.4203
Si 20.8529 13.8681 14.4079
Si 18.1191 12.1675 14.3983
O 21.2003 9.98381 14.4202
Si 22.4835 11.0138 14.4079
Si 19.6313 9.5204 14.3979
O 23.2765 10.4771 15.7841
O 22.0017 12.6315 14.4068
O 23.2766 10.4768 13.0323
O 19.3227 8.94195 15.8696
O 18.6136 10.6946 14.0358
O 19.4998 8.5466 13.1181
O 16.3597 16.8063 11.6688
Si 17.755 17.6784 11.6566
Si 15.4051 15.4776 11.6467
O 18.8527 13.936 11.6687
Si 19.9106 15.1963 11.6563
Si 17.4039 13.176 11.6466
O 20.7929 14.8243 13.0325
O 19.1228 16.6892 11.6553
O 20.7931 14.8239 10.2808
O 17.2135 12.549 13.1185
O 16.1773 14.1295 11.2838
O 17.4649 12.1951 10.367
O 12.775 19.6842 14.4202
Si 13.9733 20.8117 14.4082
Si 12.0983 18.1946 14.3983
O 15.78 17.3551 14.4208
Si 16.5717 18.7976 14.4083
Si 14.5073 16.3271 14.3984
O 17.5097 18.6046 15.7846
O 15.5077 20.1081 14.4071
O 17.51 18.6042 13.0328
O 14.4425 15.6754 15.8704
O 13.1187 17.0234 14.035
O 14.7585 15.3768 13.1188
O 8.69691 21.8053 11.6687
Si 9.6518 23.1453 11.6565
Si 8.32471 20.2122 11.6467
O 12.0998 20.109 11.6688
Si 12.5942 21.6785 11.6565
Si 11.0524 18.8522 11.6466
O 13.5519 21.6723 13.0328
O 11.2944 22.7556 11.6554
O 13.5523 21.672 10.281
O 11.1157 18.2006 13.1186
O 9.55472 19.2637 11.2827
O 11.484 17.9693 10.3671
O 4.28241 23.0859 14.4205
Si 4.95657 24.5869 14.4084
Si 4.22932 21.4507 14.3984
O 7.95183 22.0892 14.4204
Si 8.12947 23.725 14.4081
Si 7.17056 20.6518 14.3983
O 9.06997 23.9065 15.7843
O 6.64366 24.5264 14.4072
O 9.07017 23.9064 13.0326
O 7.35974 20.0256 15.8705
O 5.62135 20.762 14.0341
O 7.76698 19.8705 13.1189
O -0.297442 23.477 11.6684
Si 0.069748 25.0809 11.6565
Si -0.0290351 21.8632 11.6464
O 3.49645 23.2183 11.6691
Si 3.35011 24.8572 11.6567
Si 3.01168 21.6558 11.6467
O 4.23671 25.2194 13.033
O 1.73602 25.3521 11.6555
O 4.23741 25.2193 10.2813
O 3.31968 21.0787 13.1189
O 1.47097 21.4604 11.2823
O 3.7495 21.0064 10.3673
O -4.86501 22.9621 14.4203
Si -4.81915 24.6069 14.4078
Si -4.28543 21.4322 14.3981
O -1.09384 23.4526 14.4204
Si -1.55857 25.031 14.4082
Si -1.2631 21.8254 14.3981
O -0.760084 25.5601 15.7844
O -3.23837 25.1996 14.4069
O -0.759623 25.56 13.0327
O -0.84811 21.32 15.8703
O -2.73567 21.3321 14.0336
O -0.412411 21.3334 13.1186
O -9.24275 21.5611 11.6687
Si -9.52007 23.183 11.6563
Si -8.37472 20.1744 11.6463
O -5.64107 22.7817 11.6684
Si -6.40605 24.2384 11.6561
Si -5.48815 21.1528 11.6464
O -5.72678 24.9139 13.0323
O -8.08626 24.0743 11.6551
O -5.72641 24.914 10.2807
O -4.98202 20.7389 13.1187
O -6.83525 20.3798 11.2821
O -4.55734 20.8373 10.3669
O -13.2615 19.3302 14.4207
Si -13.8509 20.8665 14.408
Si -12.1391 18.14 14.398
O -9.96863 21.2319 14.4202
Si -11.0039 22.5108 14.408
Si -9.49967 19.6646 14.398
O -10.4702 23.3062 15.7841
O -12.6194 22.0211 14.4068
O -10.4698 23.3064 13.0325
O -8.92198 19.3579 15.8702
O -10.6694 18.6427 14.0341
O -8.52517 19.5376 13.1184
O -16.7667 16.3569 11.6688
Si -17.6452 17.7483 11.6561
Si -15.4335 15.4087 11.6464
O -13.9094 18.865 11.6683
Si -15.1744 19.9171 11.6563
Si -13.1427 17.4197 11.6464
O -14.8067 20.8014 13.0325
O -16.6631 19.1213 11.6551
O -14.8063 20.8019 10.281
O -12.5159 17.2323 13.1185
O -14.0899 16.1884 11.2831
O -12.1623 17.4858 10.3667
O -19.6248 12.7568 14.4207
Si -20.7577 13.9501 14.4078
Si -18.1324 12.0866 14.3981
O -17.3117 15.7738 14.4199
Si -18.7577 16.559 14.4078
Si -16.2777 14.5059 14.398
O -18.5698 17.498 15.784
O -20.0626 15.4882 14.4067
O -18.5697 17.4983 13.0323
O -15.6259 14.445 15.8701
O -16.9663 13.1132 14.0352
O -15.329 14.7621 13.1183
O -21.7273 8.66912 11.6687
Si -23.071 9.61888 11.6563
Si -20.133 8.30175 11.6464
O -20.046 12.0781 11.6681
Si -21.6172 12.567 11.6561
Si -18.7847 11.036 11.6464
O -21.6158 13.5245 13.0323
O -22.6887 11.2629 11.6552
O -21.6157 13.525 10.2807
O -18.1335 11.1037 13.1185
O -19.1881 9.53536 11.2845
O -17.9041 11.4723 10.3667
O -22.9962 4.25083 14.4198
Si -24.4989 4.92127 14.4078
Si -21.3609 4.20019 14.3978
O -22.009 7.92111 14.42
Si -23.6451 8.09532 14.4079
Si -20.5691 7.14427 14.3981
O -23.83 9.03466 15.7842
O -24.4431 6.6081 14.4067
O -23.8299 9.03525 13.0325
O -19.943 7.33756 15.87
O -20.6733 5.59384 14.0363
O -19.7901 7.74322 13.1182
O -23.3832 -0.329856 11.6687
Si -24.9875 0.0360335 11.6564
Si -21.7692 -0.0619767 11.6467
O -23.1274 3.46234 11.6682
Si -24.7663 3.31541 11.6562
Si -21.5641 2.97987 11.6461
O -25.1302 4.20099 13.0323
O -25.2603 1.70159 11.6551
O -25.1301 4.20142 10.2807
O -20.9873 3.2914 13.1179
O -21.3654 1.43857 11.2848
O -20.9161 3.71847 10.3662
O -22.8736 -4.8985 14.4197
Si -24.5184 -4.85121 14.4078
Si -21.3423 -4.32225 14.398
O -23.3589 -1.12898 14.4205
Si -24.9381 -1.59127 14.4081
Si -21.7316 -1.29853 14.3984
O -25.4669 -0.793187 15.7843
O -25.1094 -3.2703 14.4069
O -25.4669 -0.792571 13.0327
O -21.2263 -0.881122 15.8702
O -21.2372 -2.77175 14.0367
O -21.2394 -0.448034 13.1185
O -21.4868 -9.28141 11.6688
Si -23.1094 -9.55469 11.6564
Si -20.0968 -8.41848 11.6468
O -22.6949 -5.67756 11.6688
Si -24.154 -6.43813 11.6562
Si -21.0657 -5.52788 11.6464
O -24.8277 -5.75775 13.0324
O -23.996 -8.11851 11.6552
O -24.8277 -5.75734 10.2806
O -20.6508 -5.02012 13.1181
O -20.2951 -6.87734 11.2847
O -20.7477 -4.59822 10.3665
O -19.2745 -13.3114 14.42
Si -20.8129 -13.8949 14.4081
Si -18.0793 -12.1942 14.3982
O -21.1605 -10.0107 14.4208
Si -22.4438 -11.0407 14.4081
Si -19.5915 -9.5472 14.3985
O -23.2367 -10.5043 15.7844
O -21.9618 -12.6584 14.407
O -23.2369 -10.5036 13.0327
O -19.2829 -8.96887 15.8703
O -18.5737 -10.7212 14.0361
O -19.4603 -8.57328 13.1188
O -16.3196 -16.8328 11.6689
Si -17.7148 -17.705 11.6566
Si -15.365 -15.5041 11.6469
O -18.8127 -13.9628 11.6689
Si -19.8706 -15.2231 11.6564
Si -17.364 -13.2027 11.6465
O -20.7529 -14.8511 13.0327
O -19.0827 -16.7159 11.6554
O -20.7531 -14.8507 10.2809
O -17.1737 -12.5757 13.1184
O -16.1373 -14.1561 11.2839
O -17.4251 -12.2218 10.3669
O -12.7347 -19.7103 14.4198
Si -13.9329 -20.838 14.4081
Si -12.0579 -18.2208 14.398
O -15.7398 -17.3816 14.4208
Si -16.5315 -18.8241 14.4083
Si -14.4672 -16.3535 14.3985
O -17.4694 -18.6312 15.7846
O -15.4675 -20.1346 14.407
O -17.4699 -18.6307 13.0328
O -14.4024 -15.7018 15.8705
O -13.0783 -17.0493 14.0352
O -14.7183 -15.4032 13.119
O -8.6567 -21.832 11.6686
Si -9.61154 -23.172 11.6561
Si -8.28451 -20.2389 11.6463
O -12.0596 -20.1353 11.6689
Si -12.5538 -21.7048 11.6564
Si -11.0121 -18.8787 11.6463
O -13.5114 -21.6986 13.0327
O -11.254 -22.782 11.6552
O -13.5117 -21.6983 10.2809
O -11.0753 -18.2269 13.1182
O -9.51454 -19.2905 11.2823
O -11.4437 -17.9956 10.3669
O -4.24197 -23.1128 14.4203
Si -4.9162 -24.6138 14.408
Si -4.18926 -21.4777 14.3981
O -7.91185 -22.1161 14.4202
Si -8.08921 -23.7519 14.4078
Si -7.13053 -20.6787 14.398
O -9.02968 -23.9333 15.784
O -6.60334 -24.5533 14.4069
O -9.03003 -23.9332 13.0323
O -7.31951 -20.0525 15.8702
O -5.58136 -20.7891 14.0338
O -7.72689 -19.8974 13.1186
O 0.337831 -23.5035 11.6691
Si -0.0293132 -25.1074 11.6568
Si 0.0692769 -21.8897 11.6469
O -3.45627 -23.245 11.6688
Si -3.30972 -24.8839 11.6564
Si -2.97148 -21.6825 11.6464
O -4.19638 -25.2462 13.0326
O -1.69561 -25.3786 11.6555
O -4.19679 -25.2462 10.2809
O -3.27965 -21.1055 13.1186
O -1.43069 -21.4874 11.2823
O -3.70927 -21.0333 10.3669
O 4.90531 -22.9886 14.4199
Si 4.85953 -24.6334 14.4079
Si 4.32567 -21.4587 14.3978
O 1.13422 -23.4792 14.4211
Si 1.59896 -25.0576 14.4085
Si 1.30334 -21.8519 14.3986
O 0.800754 -25.5866 15.7848
O 3.27877 -25.2262 14.4071
O 0.7998 -25.5866 13.0331
O 0.888549 -21.3466 15.8709
O 2.7758 -21.3585 14.0336
O 0.452291 -21.36 13.1193
O 9.28314 -21.5877 11.6696
Si 9.5603 -23.2096 11.6566
Si 8.41506 -20.2011 11.6467
O 5.68126 -22.8084 11.6686
Si 6.44635 -24.2651 11.6562
Si 5.52848 -21.1796 11.6461
O 5.76708 -24.9405 13.0324
O 8.12654 -24.1009 11.6552
O 5.76679 -24.9405 10.2808
O 5.0223 -20.7654 13.1183
O 6.87579 -20.407 11.2819
O 4.59781 -20.864 10.3666
O 13.3016 -19.357 14.4208
Si 13.8911 -20.8932 14.408
Si 12.1794 -18.1666 14.3983
O 10.009 -21.2584 14.4203
Si 11.044 -22.5374 14.4082
Si 9.53994 -19.691 14.3984
O 10.5105 -23.3328 15.7844
O 12.6596 -22.0478 14.407
O 10.5099 -23.3332 13.0329
O 8.96234 -19.3846 15.8707
O 10.7095 -18.6689 14.0346
O 8.56534 -19.5642 13.1188
O 16.8075 -16.3843 11.6689
Si 17.686 -17.7757 11.6563
Si 15.4745 -15.4359 11.6466
O 13.9499 -18.8917 11.6687
Si 15.2148 -19.944 11.6563
Si 13.1833 -17.4464 11.6466
O 14.847 -20.8283 13.0325
O 16.7037 -19.1485 11.6553
O 14.8465 -20.8287 10.281