2976
 Atoms. Timestep: 11259
O -82.3288 -40.5805 2.75188
Si -83.9004 -41.0697 2.75187
Si -80.9713 -39.6551 2.75185
O -83.8811 -37.2875 2.75186
Si -85.2586 -38.1884 2.75184
Si -82.3033 -36.8294 2.7518
O -86.0396 -37.687 4.11509
O -84.9617 -39.8092 2.75184
O -86.0396 -37.6871 1.38856
O -82.1143 -35.9573 4.1151
O -81.2441 -38.0569 2.75189
O -82.1143 -35.9572 1.38856
O -80.1582 -44.6929 0.0254336
Si -81.703 -45.261 0.0253701
Si -78.8494 -43.6997 0.0253828
O -81.8755 -41.4825 0.025291
Si -83.2054 -42.4522 0.0253741
Si -80.3229 -40.9451 0.0253351
O -84.0108 -41.9912 1.38865
O -82.8268 -44.0559 0.0254361
O -84.0108 -41.9912 4.11512
O -80.1783 -40.0643 1.38855
O -79.2029 -42.1174 0.025373
O -80.1782 -40.0645 4.11507
O -66.3534 -63.3265 2.75182
Si -67.7069 -64.263 2.75183
Si -65.3346 -62.0375 2.75184
O -68.8196 -60.6481 2.75192
Si -69.8645 -61.9198 2.75186
Si -67.4509 -59.7393 2.75187
O -70.7597 -61.6752 4.11508
O -69.0966 -63.3776 2.75187
O -70.7598 -61.6752 1.38866
O -67.5317 -58.8503 4.1151
O -66.0731 -60.594 2.75194
O -67.5316 -58.8504 1.38858
O -63.0533 -66.602 0.0255083
Si -64.3577 -67.6058 0.0254055
Si -62.1007 -65.2634 0.0254577
O -65.6512 -64.0515 0.0252896
Si -66.6306 -65.3743 0.0253307
Si -64.33 -63.0748 0.0253209
O -67.537 -65.1751 1.38854
O -65.7902 -66.7916 0.0253783
O -67.5369 -65.1752 4.11509
O -64.4554 -62.1911 1.38858
O -62.9109 -63.859 0.0254027
O -64.4554 -62.1911 4.11504
O -44.3205 -80.2739 2.75164
Si -45.3338 -81.571 2.75185
Si -43.7318 -78.74 2.75181
O -47.4723 -78.451 2.75088
Si -48.091 -79.9763 2.75185
Si -46.4363 -77.1758 2.75184
O -49.0181 -80.0092 4.11518
O -46.924 -81.1394 2.75191
O -49.0183 -80.0095 1.38863
O -46.7782 -76.3514 4.11513
O -44.8665 -77.5818 2.75192
O -46.778 -76.3511 1.38862
O -22.7722 -88.8447 0.0253861
Si -41.1418 -83.7657 0.0254081
Si -39.6843 -80.8576 0.0254799
O -43.4344 -80.7571 0.0254679
Si -43.9756 -82.3115 0.0253582
Si -42.4639 -79.4313 0.0253146
O -44.9001 -82.3912 1.38859
O -42.7516 -83.4146 0.0253638
O -44.9001 -82.3911 4.11515
O -42.8467 -78.625 1.38854
O -40.8757 -79.7578 0.0253719
O -42.8466 -78.6251 4.11502
O -18.2412 -89.8915 2.75199
Si -18.8214 -91.4318 2.75196
Si -18.1371 -88.2518 2.75194
O -21.793 -89.0916 2.7517
Si -21.9289 -90.7319 2.75186
Si -21.1848 -87.5654 2.75176
O -22.8043 -91.0397 4.11513
O -20.468 -91.4941 2.75184
O -22.8043 -91.0398 1.38858
O -21.7568 -86.8801 4.11495
O -19.5654 -87.4847 2.75189
O -21.7566 -86.8802 1.38848
O 4.88376 -91.6253 0.0253755
Si -14.1648 -92.2747 0.0254006
Si 4.57341 -90.0119 0.0253721
O -17.2512 -90.0883 0.0254312
Si -17.3038 -91.7334 0.0254541
Si -16.7209 -88.5332 0.0254273
O -18.1625 -92.0852 1.38871
O -15.8061 -92.4205 0.025363
O -18.1625 -92.0852 4.11522
O -17.3266 -87.8779 1.38872
O -15.1078 -88.3704 0.0253641
O -17.3267 -87.8779 4.11519
O 9.52011 -91.266 2.75196
Si 9.42788 -92.9093 2.75189
Si 9.12808 -89.6705 2.7519
O 5.89156 -91.5672 2.75188
Si 6.25335 -93.1729 2.75185
Si 6.01484 -89.9289 2.75188
O 5.51038 -93.729 4.11508
O 7.87558 -93.4622 2.75185
O 5.51035 -93.729 1.38864
O 5.26396 -89.4466 4.11513
O 7.5355 -89.3666 2.75187
O 5.26398 -89.4466 1.38861
O 32.1019 -85.991 0.0252514
Si 14.1231 -92.3177 0.0253488
Si 31.3225 -84.5447 0.0252194
O 10.5236 -91.157 0.0253667
Si 10.9662 -92.7423 0.0253776
Si 10.5634 -89.5145 0.0253897
O 10.2524 -93.3353 1.38864
O 12.601 -92.9488 0.0253403
O 10.2524 -93.3353 4.11511
O 9.78903 -89.0709 1.38862
O 12.0535 -88.8755 0.0253239
O 9.78898 -89.0709 4.1152
O 36.4176 -84.26 2.7518
Si 36.8217 -85.8556 2.75175
Si 35.566 -82.855 2.75179
O 33.0458 -85.634 2.75184
Si 33.8718 -87.0576 2.75176
Si 32.6729 -84.0339 2.75174
O 33.3295 -87.8106 4.11501
O 35.5062 -86.8479 2.75177
O 33.3295 -87.8106 1.38849
O 31.8122 -83.7984 4.11505
O 33.9555 -83.0421 2.75174
O 31.812 -83.7985 1.38853
O 56.3871 -72.4706 0.0251255
Si 41.1245 -83.8858 0.025227
Si 39.7184 -80.9526 0.0252352
O 37.3423 -83.8556 0.0252577
Si 38.2394 -85.2356 0.0252349
Si 36.8888 -82.2764 0.0252835
O 37.7358 -86.0152 1.38849
O 39.861 -84.9434 0.0252566
O 37.7358 -86.0151 4.11498
O 36.0171 -82.085 1.38851
O 38.1194 -81.2209 0.0252124
O 36.0171 -82.085 4.11505
O 59.9868 -69.5275 2.75156
Si 60.8501 -70.9288 2.75149
Si 58.7539 -68.4415 2.75155
O 57.181 -71.8473 2.75164
Si 58.3952 -72.9585 2.75154
Si 56.3463 -70.4322 2.75162
O 58.1031 -73.8394 4.11479
O 59.892 -72.2694 2.75164
O 58.1031 -73.8394 1.38832
O 55.4545 -70.4652 4.11488
O 57.2732 -69.1019 2.75139
O 55.4544 -70.4653 1.3884
O 75.5101 -52.2988 0.0244199
Si 64.3661 -67.7613 0.0249376
Si 62.1466 -65.3834 0.0249629
O 60.7484 -68.8644 0.0250873
Si 62.0172 -69.9129 0.0249815
Si 59.8429 -67.4934 0.0250413
O 61.7701 -70.8074 1.38823
O 63.4771 -69.1487 0.0250543
O 61.7701 -70.8074 4.11475
O 58.9541 -67.5716 1.3884
O 60.7012 -66.1179 0.0248022
O 58.9539 -67.5718 4.11482
O 78.0636 -48.4128 2.75078
Si 79.3068 -49.4916 2.75085
Si 76.5621 -47.746 2.75088
O 76.0811 -51.4663 2.75115
Si 77.5722 -52.1632 2.75104
Si 74.8609 -50.3661 2.75105
O 77.5573 -53.091 4.11429
O 78.7939 -51.0575 2.75097
O 77.5572 -53.091 1.38781
O 74.0198 -50.6647 4.11429
O 75.3469 -48.8194 2.75093
O 74.0198 -50.6647 1.38781
O 87.7209 -27.328 0.0239253
Si 81.7133 -45.4167 0.0242236
Si 78.8837 -43.8122 0.024196
O 78.5917 -47.5522 0.0244822
Si 80.1162 -48.1727 0.024338
Si 77.3173 -46.5152 0.0243677
O 80.1482 -49.1003 1.38756
O 81.2803 -47.0066 0.0242726
O 80.1482 -49.1002 4.11411
O 76.4925 -46.8561 1.38764
O 77.7245 -44.9458 0.0242486
O 76.4925 -46.8563 4.11418
O 88.9946 -22.8556 2.75027
Si 90.5038 -23.5127 2.75031
Si 87.3623 -22.6689 2.7503
O 88.0168 -26.3627 2.75038
Si 89.6482 -26.5811 2.75038
Si 86.5232 -25.6782 2.75041
O 89.9115 -27.471 4.11367
O 90.4829 -25.1603 2.7503
O 89.9115 -27.471 1.38708
O 85.81 -26.2147 4.11362
O 86.5242 -24.0568 2.75037
O 85.81 -26.2147 1.38719
O 91.8808 0.154694 0.0233858
Si 91.5801 -18.904 0.0236156
Si 88.3999 -18.2208 0.0236292
O 89.241 -21.8768 0.023855
Si 90.8814 -22.0119 0.0237954
Si 87.7147 -21.2688 0.0237884
O 91.1895 -22.8874 1.38705
O 91.643 -20.5506 0.0237137
O 91.1895 -22.8874 4.11359
O 87.0297 -21.8408 1.38704
O 87.6334 -19.6495 0.0237797
O 87.0297 -21.8408 4.11356
O 91.7498 4.8028 2.74966
Si 93.3867 4.6301 2.74974
Si 90.1369 4.48969 2.74969
O 91.8725 1.1639 2.74974
Si 93.494 1.44627 2.74978
Si 90.2422 1.36759 2.7498
O 94.0128 0.676631 4.11305
O 93.8625 3.05243 2.7497
O 94.0128 0.676548 1.38657
O 89.7235 0.641499 4.11305
O 89.7552 2.914 2.74981
O 89.7234 0.641514 1.38655
O 91.382 9.43825 0.0228169
Si 93.0256 9.34923 0.0230514
Si 89.7872 9.04348 0.0229851
O 91.6899 5.81046 0.0232806
Si 93.295 6.17511 0.0232311
Si 90.0514 5.93076 0.0231942
O 93.8523 5.43294 1.38647
O 93.5813 7.79789 0.0230699
O 93.8523 5.4329 4.11303
O 89.5703 5.1791 1.38642
O 89.4863 7.45036 0.0232423
O 89.5704 5.17922 4.11291
O 90.7787 14.049 2.7497
Si 92.4246 14.0439 2.74956
Si 89.206 13.5736 2.74964
O 91.2711 10.4419 2.74965
Si 92.8555 10.8877 2.74957
Si 89.6285 10.4785 2.74951
O 93.4499 10.1747 4.11278
O 93.0587 12.5229 2.74961
O 93.4498 10.1748 1.38632
O 89.1863 9.70314 4.11267
O 88.9866 11.9673 2.74968
O 89.1864 9.70343 1.38619
O 89.9413 18.6229 0.0231194
Si 91.5854 18.7017 0.0230704
Si 88.3948 18.0682 0.0229651
O 90.6166 15.0456 0.0230075
Si 92.1763 15.5715 0.0230519
Si 88.9744 14.9986 0.0231254
O 92.8062 14.8898 1.38629
O 92.2961 17.215 0.0230583
O 92.8062 14.8899 4.11278
O 88.5723 14.2019 1.38636
O 88.2575 16.4527 0.0231777
O 88.5722 14.202 4.11288
O 88.8722 23.1487 2.74939
Si 90.5101 23.3106 2.74959
Si 87.3561 22.5157 2.74962
O 89.7287 19.6098 2.74932
Si 91.2596 20.2145 2.74957
Si 88.0909 19.4795 2.74946
O 91.9235 19.5659 4.11281
O 91.2955 21.8619 2.7496
O 91.9235 19.566 1.3863
O 87.73 18.6632 4.11265
O 87.3011 20.8954 2.74972
O 87.7298 18.6635 1.38613
O 87.5745 27.6137 0.0227871
Si 89.2022 27.8589 0.0231155
Si 86.0924 26.9048 0.0231201
O 88.6098 24.1232 0.0233361
Si 90.1079 24.8049 0.0231029
Si 86.9807 23.9098 0.0231233
O 90.8039 24.1909 1.38633
O 90.0601 26.452 0.0230694
O 90.8038 24.1908 4.1129
O 86.6617 23.0764 1.38638
O 86.1199 25.2837 0.0232221
O 86.6618 23.0765 4.11281
O 86.0523 32.0073 2.74949
Si 87.6653 32.3347 2.74964
Si 84.608 31.2241 2.74957
O 87.2631 28.5739 2.74999
Si 88.7247 29.3307 2.74966
Si 85.647 28.278 2.74965
O 89.4509 28.7529 4.11288
O 88.5936 30.9733 2.74958
O 89.4508 28.753 1.38638
O 85.3705 27.4294 4.11286
O 84.7176 29.6065 2.74984
O 85.3706 27.4296 1.38633
O 84.3091 36.3182 0.023087
Si 85.9035 36.7269 0.023178
Si 82.9064 35.4626 0.0232411
O 85.6925 32.9506 0.0231355
Si 87.1139 33.7806 0.0231293
Si 84.0935 32.573 0.0230721
O 87.8684 33.2403 1.38642
O 86.8995 35.4143 0.0231222
O 87.8684 33.2402 4.11292
O 83.8605 31.7114 1.38623
O 83.098 33.8527 0.023282
O 83.8604 31.7117 4.11275
O 72.4564 56.2499 2.74987
Si 73.8973 57.0454 2.74987
Si 71.3131 55.0699 2.74984
O 74.6404 53.3368 2.75
Si 75.8081 54.4968 2.74987
Si 73.1871 52.5704 2.74992
O 76.6741 54.1632 4.11308
O 75.1907 56.0245 2.74991
O 76.674 54.1631 1.38667
O 73.1777 51.678 4.11317
O 71.9024 53.5594 2.74994
O 73.1778 51.678 1.38667
O 69.5022 59.8407 0.0234284
Si 70.9011 60.7081 0.0234481
Si 68.42 58.6044 0.0233959
O 71.8306 57.0418 0.0233326
Si 72.9382 58.2594 0.0233518
Si 70.418 56.2028 0.0233456
O 73.8198 57.9701 1.38664
O 72.2445 59.754 0.023391
O 73.8198 57.9701 4.11309
O 70.4539 55.3111 1.38657
O 69.085 57.1257 0.0235215
O 70.4538 55.3112 4.11302
O 52.2368 75.3228 2.75008
Si 53.3751 76.5117 2.75017
Si 51.4973 73.8557 2.75009
O 55.1898 73.1933 2.75017
Si 55.9585 74.6487 2.7501
Si 54.0313 72.0283 2.75012
O 56.8844 74.5886 4.11339
O 54.914 75.923 2.75015
O 56.8845 74.5886 1.38684
O 54.2887 71.1736 4.11331
O 52.5101 72.5895 2.75023
O 54.2886 71.1736 1.38689
O 31.6602 86.0184 0.0238756
Si 49.4243 79.1153 0.023669
Si 47.6824 76.3682 0.0236179
O 51.4035 75.8924 0.0235476
Si 52.0981 77.3847 0.0236547
Si 50.305 74.6706 0.0235916
O 53.0259 77.3712 1.38689
O 50.9908 78.6048 0.0236446
O 53.0258 77.3713 4.1134
O 50.6052 73.8299 1.38678
O 48.7575 75.1546 0.0237602
O 50.605 73.83 4.11328
O 27.2584 87.5178 2.75013
Si 27.9915 88.9914 2.75027
Si 26.9889 85.8971 2.75015
O 30.7111 86.3628 2.75055
Si 31.0122 87.981 2.75042
Si 29.9516 84.906 2.75041
O 31.9141 88.199 4.11369
O 29.6359 88.887 2.75027
O 31.9141 88.1989 1.38717
O 30.4513 84.1665 4.11367
O 28.3324 84.9894 2.75025
O 30.4514 84.1665 1.38718
O 4.42941 91.5912 0.0232504
Si 23.4445 90.3015 0.0236083
Si 22.5995 87.1603 0.0235541
O 26.2933 87.8137 0.0238213
Si 26.5124 89.445 0.023758
Si 25.6084 86.3203 0.0236501
O 27.4022 89.7082 1.38703
O 25.0921 90.2804 0.0236506
O 27.4023 89.7082 4.11357
O 26.1448 85.6071 1.3869
O 23.987 86.3216 0.023652
O 26.1449 85.6071 4.11343
O -0.219232 91.7047 2.74951
Si 0.0392492 93.3302 2.74981
Si 0.00855161 90.0776 2.74968
O 3.42085 91.6359 2.75037
Si 3.22406 93.2701 2.75011
Si 3.13186 90.0186 2.75012
O 4.01978 93.7478 4.11331
O 1.63964 93.7226 2.74998
O 4.01967 93.7477 1.38683
O 3.82975 89.4623 4.11333
O 1.562 89.6136 2.75014
O 3.82964 89.4624 1.38683
O -23.2195 88.7471 0.0228819
Si -4.69195 93.2183 0.0233938
Si -22.5908 87.2292 0.0233988
O -1.22894 91.6981 0.0233889
Si -1.50824 93.3202 0.0233103
Si -1.43508 90.0681 0.0231882
O -0.737688 93.8377 1.38648
O -3.11361 93.6917 0.0233934
O -0.737832 93.8376 4.11307
O -0.709508 89.5482 1.38628
O -2.9823 89.5837 0.0235582
O -0.710058 89.5482 4.11282
O -27.6883 87.4625 2.75052
Si -27.9289 89.0908 2.7493
Si -26.9836 85.9783 2.74927
O -24.1949 88.4877 2.75064
Si -24.8725 89.9878 2.74983
Si -23.986 86.8581 2.74996
O -24.2567 90.682 4.11315
O -26.5197 89.9447 2.74955
O -24.2565 90.6818 1.38655
O -23.1537 86.5364 4.11329
O -25.3624 86.0013 2.7496
O -23.1534 86.5367 1.38677
O -48.7485 77.754 0.0228039
Si -32.4091 87.5668 0.0230724
Si -47.6941 76.494 0.0227889
O -28.6497 87.1536 0.0213417
Si -29.4022 88.6175 0.0227003
Si -28.3583 85.5367 0.0226583
O -28.8221 89.3419 1.38595
O -31.0451 88.4911 0.023061
O -28.8224 89.3422 4.11244
O -27.5103 85.2583 1.38582
O -29.6895 84.6112 0.0231514
O -27.5106 85.2577 4.11236
O -52.6277 75.1904 2.74972
Si -53.3447 76.672 2.74954
Si -51.511 73.9854 2.74945
O -49.6014 77.2146 2.7492
Si -50.697 78.4429 2.74934
Si -48.9142 75.7221 2.74929
O -50.3171 79.2897 4.11254
O -52.2557 77.9086 2.74949
O -50.3172 79.2896 1.38604
O -48.0234 75.6648 4.11237
O -49.971 74.4925 2.74958
O -48.0238 75.6645 1.38595
O -69.8129 59.619 0.0232239
Si -57.1631 73.8763 0.0233972
Si -68.4294 58.7327 0.0232044
O -53.4525 74.6079 0.0226034
Si -54.6087 75.7793 0.0230123
Si -52.6903 73.1524 0.022922
O -54.2723 76.6442 1.38629
O -56.1383 75.1667 0.0231176
O -54.2723 76.6443 4.11279
O -51.7979 73.1404 1.38615
O -53.6831 71.8707 0.0232279
O -51.7981 73.1402 4.11258
O -72.746 56.0107 2.74996
Si -73.874 57.2094 2.74998
Si -71.3196 55.1955 2.74992
O -70.4652 58.8482 2.74969
Si -71.8784 59.6921 2.7498
Si -69.3623 57.6304 2.74971
O -71.7696 60.6138 4.11304
O -73.2056 58.7155 2.7499
O -71.7696 60.6138 1.38654
O -68.4953 57.8427 4.11293
O -70.0022 56.1407 2.74995
O -68.4954 57.8426 1.38641
O -84.4841 36.0094 0.0242374
Si -76.6797 53.3985 0.023574
Si -82.899 35.5773 0.0241844
O -73.3584 55.2078 0.0232092
Si -74.8125 55.9791 0.0234661
Si -72.1953 54.0474 0.0234151
O -74.7506 56.9051 1.38668
O -76.0884 54.9366 0.0235251
O -74.7507 56.9051 4.11322
O -71.3402 54.3033 1.3866
O -72.7588 52.5272 0.0234995
O -71.3403 54.3031 4.11313
O -86.2039 31.6887 2.75079
Si -87.6387 32.4952 2.75077
Si -84.5989 31.3377 2.75069
O -84.8762 35.079 2.75068
Si -86.4772 35.4613 2.7507
Si -83.4596 34.2466 2.75069
O -86.649 36.3733 4.11398
O -87.4514 34.1323 2.75069
O -86.649 36.3733 1.38743
O -82.6958 34.7083 4.11395
O -83.6247 32.6337 2.75059
O -82.6957 34.7083 1.38745
O -91.4118 9.08903 0.0247463
Si -89.1764 28.0191 0.0243194
Si -86.0817 27.0173 0.0243537
O -86.5482 30.7394 0.0242429
Si -88.1664 31.0403 0.0242718
Si -85.0912 29.9802 0.0241855
O -88.3843 31.9425 1.38753
O -89.0721 29.6637 0.0242559
O -88.3843 31.9425 4.11403
O -84.3518 30.4799 1.38749
O -85.1743 28.3609 0.0241803
O -84.3517 30.4802 4.11405
O -91.7542 4.45134 2.75138
Si -93.3651 4.78934 2.75127
Si -90.1179 4.59867 2.75131
O -91.5063 8.0835 2.75119
Si -93.1482 7.96762 2.75124
Si -89.9051 7.71529 2.75115
O -93.5859 8.78616 4.11448
O -93.6782 6.40723 2.75121
O -93.5859 8.7861 1.38797
O -89.3152 8.3849 4.1144
O -89.5779 6.12739 2.75125
O -89.3152 8.38491 1.38791
O -91.8594 -0.197831 0.0248759
Si -93.4854 0.05769 0.0248465
Si -90.2327 0.0328029 0.024847
O -91.7972 3.44224 0.0246961
Si -93.431 3.24282 0.0247651
Si -90.1793 3.15623 0.024801
O -93.91 4.03786 1.38805
O -93.8807 1.65746 0.0247857
O -93.91 4.0379 4.11452
O -89.6244 3.85513 1.38805
O -89.7714 1.58708 0.0247366
O -89.6244 3.85508 4.11455
O -91.7274 -4.84603 2.75149
Si -93.3644 -4.67366 2.75145
Si -90.1146 -4.53293 2.75148
O -91.8508 -1.20718 2.75135
Si -93.4723 -1.48992 2.75136
Si -90.2206 -1.41079 2.75135
O -93.9913 -0.720451 4.11462
O -93.8406 -3.09612 2.75137
O -93.9913 -0.720444 1.3881
O -89.7019 -0.684732 4.11468
O -89.7333 -2.95711 2.75132
O -89.7019 -0.684506 1.38814
O -91.3591 -9.48172 0.0250844
Si -93.0027 -9.39275 0.0250527
Si -89.7643 -9.08693 0.0250203
O -91.6675 -5.8539 0.0248967
Si -93.2725 -6.21866 0.0249444
Si -90.029 -5.97418 0.0249715
O -93.8299 -5.47656 1.3882
O -93.5586 -7.84148 0.0249928
O -93.8299 -5.47658 4.11469
O -89.548 -5.22248 1.38825
O -89.4637 -7.49375 0.024874
O -89.548 -5.22237 4.11477
O -90.7555 -14.0924 2.75166
Si -92.4015 -14.0874 2.75165
Si -89.1828 -13.6172 2.75158
O -91.248 -10.4852 2.75154
Si -92.8325 -10.9311 2.75156
Si -89.6055 -10.522 2.75154
O -93.4269 -10.2182 4.11479
O -93.0356 -12.5664 2.75163
O -93.4269 -10.2182 1.38835
O -89.1634 -9.74686 4.11485
O -88.9635 -12.0108 2.75152
O -89.1634 -9.74676 1.38827
O -89.9188 -18.6669 0.0252277
Si -91.5629 -18.7455 0.025208
Si -88.3722 -18.1122 0.025196
O -90.5936 -15.0894 0.0251125
Si -92.1534 -15.6151 0.0251438
Si -88.9513 -15.0424 0.0250706
O -92.7832 -14.9334 1.3884
O -92.2733 -17.2586 0.0251354
O -92.7832 -14.9334 4.1149
O -88.5491 -14.2457 1.38832
O -88.2347 -16.4967 0.0251376
O -88.5491 -14.2456 4.11489
O -88.8507 -23.1927 2.75176
Si -90.4887 -23.3547 2.75173
Si -87.3344 -22.5602 2.75175
O -89.7065 -19.654 2.75165
Si -91.2375 -20.2585 2.75172
Si -88.0687 -19.5237 2.7517
O -91.9011 -19.6098 4.11498
O -91.2738 -21.9059 2.75169
O -91.9011 -19.6098 1.38845
O -87.7075 -18.7077 4.11494
O -87.2791 -20.9398 2.7517
O -87.7075 -18.7077 1.38841
O -87.5536 -27.6584 0.0253055
Si -89.1812 -27.9033 0.0252739
Si -86.0713 -26.9497 0.025243
O -88.5884 -24.1677 0.0252345
Si -90.0866 -24.8492 0.0252268
Si -86.9593 -23.9545 0.0252455
O -90.7825 -24.2351 1.3885
O -90.0389 -26.4963 0.0252362
O -90.7825 -24.2351 4.11499
O -86.6402 -23.1211 1.38854
O -86.0986 -25.3286 0.0252644
O -86.6402 -23.1211 4.11497
O -86.0316 -32.0526 2.75184
Si -87.6447 -32.3799 2.75181
Si -84.5872 -31.2695 2.75185
O -87.2421 -28.6189 2.75181
Si -88.7038 -29.3755 2.75179
Si -85.6259 -28.3232 2.75175
O -89.4299 -28.7973 4.11497
O -88.5727 -31.0182 2.75178
O -89.4299 -28.7974 1.38855
O -85.3495 -27.4747 4.11505
O -84.6967 -29.6518 2.75172
O -85.3496 -27.4745 1.38855
O -84.2883 -36.3636 0.0253495
Si -85.8827 -36.7724 0.0253315
Si -82.8856 -35.5083 0.0252799
O -85.6717 -32.9961 0.0252646
Si -87.0932 -33.8259 0.025297
Si -84.0727 -32.6186 0.0253383
O -87.8476 -33.2855 1.38858
O -86.8788 -35.4597 0.0253051
O -87.8477 -33.2855 4.11506
O -83.8397 -31.757 1.38858
O -83.0771 -33.8983 0.0252401
O -83.8397 -31.7572 4.11505
O 82.3491 40.5347 2.74974
Si 83.9207 41.0238 2.74963
Si 80.9917 39.609 2.74956
O 83.9018 37.2417 2.74984
Si 85.2792 38.1427 2.74969
Si 82.324 36.7835 2.74976
O 86.0603 37.6415 4.11291
O 84.9822 39.7635 2.74964
O 86.0603 37.6416 1.38643
O 82.1351 35.9113 4.11297
O 81.2648 38.0109 2.74979
O 82.1351 35.9114 1.3865
O 80.1781 44.6463 0.0233753
Si 81.7228 45.2148 0.0233067
Si 78.8693 43.6532 0.0232716
O 81.8957 41.4364 0.0228944
Si 83.2256 42.4062 0.0231191
Si 80.3431 40.8989 0.0230336
O 84.031 41.9452 1.38635
O 82.8468 44.0098 0.0232512
O 84.031 41.9453 4.11286
O 80.1987 40.0181 1.38625
O 79.223 42.071 0.0232874
O 80.1985 40.0183 4.11273
O 77.8013 48.6431 2.74996
Si 79.3153 49.2889 2.7499
Si 76.5445 47.5849 2.74998
O 79.6793 45.5243 2.74969
Si 80.9585 46.5602 2.74981
Si 78.1561 44.9086 2.74977
O 81.7862 46.1406 4.11309
O 80.4989 48.1425 2.74982
O 81.7862 46.1406 1.38657
O 78.0565 44.0217 4.11298
O 76.978 46.0226 2.74984
O 78.0564 44.0218 1.38649
O 75.2253 52.514 0.0233139
Si 76.7046 53.2357 0.0233501
Si 74.0237 51.3936 0.0234035
O 77.2587 49.4945 0.0234885
Si 78.4838 50.5938 0.0234052
Si 75.7686 48.8025 0.0234674
O 79.3318 50.2167 1.38664
O 77.9448 52.1508 0.0233563
O 79.3317 50.2167 4.11317
O 75.714 47.9118 1.3868
O 74.5356 49.8553 0.0234001
O 75.7141 47.9117 4.11325
O -77.7823 -48.6899 2.75198
Si -79.2963 -49.3356 2.75196
Si -76.5254 -47.6318 2.75195
O -79.6597 -45.5709 2.75189
Si -80.939 -46.6066 2.75188
Si -78.1364 -44.9553 2.75188
O -81.7666 -46.1869 4.11517
O -80.4798 -48.189 2.7519
O -81.7666 -46.1869 1.3886
O -78.0367 -44.0684 4.11513
O -76.9585 -46.0695 2.75186
O -78.0367 -44.0683 1.38866
O -75.2064 -52.5613 0.0254656
Si -76.6859 -53.2826 0.025421
Si -74.0047 -51.4409 0.0254462
O -77.2396 -49.5415 0.0253825
Si -78.4649 -50.6405 0.0254521
Si -75.7495 -48.8496 0.0254454
O -79.3128 -50.2633 1.38868
O -77.926 -52.1976 0.0254494
O -79.3128 -50.2634 4.11523
O -75.6949 -47.9588 1.38873
O -74.5166 -49.9025 0.0254103
O -75.6949 -47.9588 4.11518
O -72.4383 -56.2971 2.75195
Si -73.8793 -57.0926 2.75197
Si -71.2947 -55.1175 2.75195
O -74.6215 -53.3841 2.75198
Si -75.7895 -54.5438 2.75193
Si -73.1682 -52.6178 2.75196
O -76.6554 -54.2101 4.11517
O -75.1726 -56.0716 2.75197
O -76.6555 -54.21 1.38873
O -73.1587 -51.7254 4.11527
O -71.8836 -53.6069 2.75196
O -73.1588 -51.7253 1.38872
O -69.4846 -59.8884 0.0252746
Si -70.8837 -60.7556 0.0253531
Si -68.402 -58.6525 0.0253491
O -71.8125 -57.0893 0.0254293
Si -72.9204 -58.3067 0.025457
Si -70.3998 -56.2506 0.0254426
O -73.802 -58.0173 1.38873
O -72.2269 -59.8013 0.0253835
O -73.802 -58.0173 4.11521
O -70.4355 -55.3589 1.38871
O -69.0668 -57.1737 0.0254194
O -70.4355 -55.359 4.11514
O 66.3703 63.2772 2.75017
Si 67.7235 64.2143 2.75002
Si 65.3517 61.9881 2.75002
O 68.837 60.6 2.74987
Si 69.8818 61.8719 2.74996
Si 67.4686 59.6907 2.74991
O 70.777 61.6276 4.11318
O 69.1134 63.3295 2.75003
O 70.777 61.6276 1.38673
O 67.5497 58.8018 4.11311
O 66.0906 60.5449 2.75014
O 67.5495 58.802 1.38654
O 63.0688 66.5518 0.0236545
Si 64.3731 67.5558 0.0235916
Si 62.1167 65.2128 0.0236523
O 65.6675 64.0021 0.0234827
Si 66.6467 65.3252 0.0235195
Si 64.3467 63.0249 0.0234993
O 67.5531 65.1264 1.38674
O 65.8058 66.7421 0.0236373
O 67.5531 65.1263 4.11334
O 64.4725 62.1413 1.38676
O 62.9274 63.8086 0.0236458
O 64.4724 62.1414 4.11323
O 59.607 69.6563 2.75018
Si 60.8591 70.7246 2.75013
Si 58.7237 68.2709 2.75016
O 62.3305 67.2405 2.75017
Si 63.2419 68.6111 2.7501
Si 61.0608 66.1978 2.75015
O 64.1571 68.4582 4.11337
O 62.3309 69.9841 2.75011
O 64.157 68.4582 1.38683
O 61.2309 65.3216 4.11337
O 59.6039 66.9092 2.75013
O 61.2308 65.3217 1.3869
O 55.9934 72.5823 0.0235686
Si 57.19 73.7125 0.0235872
Si 55.1809 71.1543 0.0236141
O 58.8353 70.3068 0.0236697
Si 59.6763 71.7217 0.0236233
Si 57.6196 69.2017 0.0236531
O 60.5981 71.615 1.38688
O 58.6973 73.047 0.0236716
O 60.598 71.6151 4.11335
O 57.8335 68.3351 1.38688
O 56.1286 69.8387 0.0237042
O 57.8335 68.3351 4.11344
O -59.5919 -69.7074 2.75212
Si -60.8442 -70.7755 2.75204
Si -58.7082 -68.3223 2.75202
O -62.3148 -67.2914 2.75189
Si -63.2267 -68.6616 2.75192
Si -61.0449 -66.2489 2.75195
O -64.1419 -68.5083 4.11515
O -62.316 -70.0347 2.75194
O -64.1418 -68.5084 1.38866
O -61.2147 -65.3727 4.11527
O -59.5881 -66.9605 2.75193
O -61.2148 -65.3726 1.38869
O -55.9786 -72.6342 0.0251386
Si -57.1755 -73.7641 0.0253921
Si -55.1658 -71.2064 0.0252832
O -58.8202 -70.3581 0.0254498
Si -59.6615 -71.7728 0.0255218
Si -57.6041 -69.2533 0.0255096
O -60.5832 -71.6659 1.38879
O -58.6826 -73.0982 0.0254184
O -60.5832 -71.6659 4.1153
O -57.818 -68.3867 1.38875
O -56.1133 -69.8907 0.0254115
O -57.818 -68.3866 4.11533
O -52.2225 -75.3751 2.7518
Si -53.3608 -76.564 2.75187
Si -51.4825 -73.9082 2.75194
O -55.1749 -73.2453 2.75199
Si -55.944 -74.7005 2.75191
Si -54.0162 -72.0805 2.75181
O -56.87 -74.6402 4.11517
O -54.8997 -75.975 2.7519
O -56.8699 -74.6402 1.38862
O -54.2734 -71.2258 4.11504
O -52.4951 -72.6419 2.75187
O -54.2734 -71.2259 1.3885
O -48.333 -77.9238 0.0264944
Si -49.4102 -79.1684 0.0254412
Si -47.6679 -76.4215 0.0254194
O -51.3889 -75.9452 0.0255214
Si -52.0838 -77.4372 0.025372
Si -50.2903 -74.7234 0.0254359
O -53.0116 -77.4237 1.3886
O -50.9766 -78.6575 0.0253272
O -53.0115 -77.4237 4.11512
O -50.5903 -73.8827 1.3887
O -48.7429 -75.2077 0.0253472
O -50.5904 -73.8827 4.11524
O 48.3473 77.8706 0.0236885
O 44.3344 80.2193 2.75035
Si 45.3474 81.5166 2.75025
Si 43.7457 78.6854 2.75031
O 47.4862 78.3976 2.75005
Si 48.1049 79.9228 2.75017
Si 46.4506 77.1221 2.75013
O 49.0321 79.9562 4.11345
O 46.9377 81.0857 2.75024
O 49.0322 79.9562 1.38693
O 46.7927 76.2976 4.11333
O 44.8807 77.5274 2.7503
O 46.7925 76.2977 1.38684
O 40.2085 82.364 0.0240004
Si 41.155 83.7105 0.0238577
Si 39.6977 80.8024 0.02387
O 43.4479 80.7025 0.0236622
Si 43.9891 82.2569 0.0237391
Si 42.4776 79.3766 0.0237853
O 44.9135 82.3368 1.38698
O 42.7649 83.3598 0.0237739
O 44.9135 82.3368 4.1135
O 42.8606 78.5703 1.38702
O 40.8893 79.7028 0.0238159
O 42.8605 78.5704 4.1135
O 35.9804 84.2988 2.75055
Si 36.8581 85.6913 2.75041
Si 35.5489 82.7135 2.75048
O 39.2988 82.8023 2.75042
Si 39.7615 84.3819 2.75038
Si 38.3967 81.4291 2.75037
O 40.6806 84.5079 4.11365
O 38.4835 85.4219 2.75037
O 40.6806 84.508 1.38708
O 38.8195 80.6431 4.11363
O 36.7941 81.6751 2.7504
O 38.8196 80.643 1.3872
Si 32.4665 87.4534 0.023907
Si 31.309 84.4134 0.023893
O 35.05 84.6907 0.0239904
Si 35.4323 86.2917 0.0238926
Si 34.2179 83.274 0.0239661
O 36.3441 86.4638 1.38717
O 34.1035 87.266 0.0238236
O 36.3441 86.4638 4.11368
O 34.6797 82.5103 1.38726
O 32.605 83.4391 0.0237771
O 34.6799 82.5102 4.11379
O -40.1953 -82.4191 0.0260673
O -35.9666 -84.3538 2.7517
Si -36.8441 -85.7463 2.75185
Si -35.5353 -82.7684 2.75171
O -39.2854 -82.8574 2.75142
Si -39.7478 -84.437 2.75186
Si -38.3832 -81.4843 2.75194
O -40.6671 -84.563 4.11516
O -38.4697 -85.4769 2.7519
O -40.6671 -84.5631 1.38861
O -38.8061 -80.6984 4.11527
O -36.7806 -81.7302 2.75189
O -38.8061 -80.6981 1.38874
O -31.6459 -86.0722 0.0253796
Si -32.4519 -87.5073 0.0254334
Si -31.2952 -84.4671 0.0255254
O -35.0361 -84.7454 0.0252846
Si -35.4181 -86.3464 0.0253388
Si -34.2043 -83.3285 0.0252118
O -36.3299 -86.5187 1.38862
O -34.089 -87.3204 0.0253787
O -36.3299 -86.5187 4.11509
O -34.6664 -82.5648 1.38839
O -32.5913 -83.4931 0.0253633
O -34.6662 -82.5649 4.11488
O -27.244 -87.5704 2.75175
Si -27.9765 -89.0443 2.75178
Si -26.9748 -85.9496 2.75176
O -30.6967 -86.4164 2.7522
Si -30.9974 -88.0346 2.75195
Si -29.9377 -84.9592 2.75205
O -31.8993 -88.2528 4.11523
O -29.6209 -88.9403 2.75185
O -31.8993 -88.2527 1.38871
O -30.4375 -84.2199 4.11533
O -28.3185 -85.0422 2.75188
O -30.4377 -84.2199 1.38886
Si -23.4292 -90.3538 0.0253452
Si -22.585 -87.2124 0.0252666
O -26.2787 -87.8663 0.0251866
Si -26.4972 -89.4977 0.0252676
Si -25.5941 -86.3728 0.0252414
O -27.3871 -89.761 1.38851
O -25.0768 -90.3328 0.0253187
O -27.3869 -89.761 4.11497
O -26.1309 -85.6596 1.38842
O -23.9727 -86.374 0.0253631
O -26.1308 -85.6596 4.11504
O 22.7871 88.7925 0.0234564
O 18.2567 89.8398 2.75018
Si 18.8371 91.38 2.75007
Si 18.1519 88.2002 2.75009
O 21.8083 89.0393 2.75009
Si 21.9444 90.6797 2.75012
Si 21.1995 87.5133 2.75007
O 22.8197 90.9875 4.11334
O 20.4837 91.4421 2.75014
O 22.8196 90.9875 1.38683
O 21.7713 86.8279 4.11326
O 19.5801 87.4328 2.75015
O 21.7711 86.828 1.38678
O 13.6792 90.6569 0.0239561
Si 14.1809 92.2245 0.0237607
Si 13.6574 89.014 0.0238658
O 17.2664 90.0368 0.0234938
Si 17.3196 91.6819 0.0235573
Si 16.7357 88.4819 0.0235696
O 18.1784 92.0335 1.38683
O 15.8222 92.3696 0.0236842
O 18.1784 92.0336 4.11331
O 17.3414 87.8265 1.38684
O 15.1225 88.3196 0.0236378
O 17.3414 87.8265 4.1133
O 9.06601 91.2415 2.75051
Si 9.48786 92.8324 2.75031
Si 9.12752 89.5996 2.75045
O 12.6801 90.8037 2.75022
Si 12.6501 92.4494 2.75026
Si 12.2288 89.2239 2.75036
O 13.49 92.8439 4.11348
O 11.1198 93.0604 2.75029
O 13.4899 92.844 1.38698
O 12.8668 88.5999 4.11365
O 10.6259 88.9803 2.75017
O 12.867 88.5998 1.38719
Si 4.76996 93.2016 0.0235912
Si 4.57404 89.9546 0.0235899
O 8.06112 91.3375 0.0239417
Si 7.94757 92.9795 0.0237945
Si 7.69028 89.7369 0.0239398
O 8.76632 93.4161 1.38713
O 6.38822 93.5121 0.0237377
O 8.76653 93.4161 4.1136
O 8.35877 89.146 1.38732
O 6.10187 89.4122 0.023675
O 8.35921 89.1459 4.11381
O -13.6636 -90.7069 0.0253738
Si -13.6424 -89.0641 0.0254309
O -9.05019 -91.2892 2.75178
Si -9.47132 -92.8804 2.75185
Si -9.1123 -89.6474 2.75181
O -12.6646 -90.8533 2.75203
Si -12.6337 -92.4989 2.75191
Si -12.2138 -89.2734 2.75195
O -13.4735 -92.8939 4.11519
O -11.1031 -93.1092 2.75187
O -13.4735 -92.8939 1.38864
O -12.852 -88.6496 4.11521
O -10.611 -89.0289 2.75187
O -12.8521 -88.6496 1.38873
O -4.41309 -91.6369 0.0252983
Si -4.75315 -93.2473 0.0253172
Si -4.55841 -90.0004 0.0252989
O -8.04492 -91.3847 0.0253469
Si -7.93083 -93.0267 0.0253377
Si -7.67488 -89.7839 0.0253029
O -8.74953 -93.4637 1.38861
O -6.37125 -93.5586 0.0253239
O -8.74948 -93.4637 4.11506
O -8.34393 -89.1933 1.38859
O -6.08653 -89.4586 0.0253156
O -8.34398 -89.1933 4.11505
O 0.235444 -91.7491 2.75184
Si -0.0224175 -93.3748 2.75185
Si 0.00744704 -90.122 2.7518
O -3.40437 -91.6813 2.75176
Si -3.20717 -93.3154 2.75182
Si -3.11597 -90.0639 2.75181
O -4.00278 -93.7933 4.11502
O -1.62268 -93.7676 2.75183
O -4.00277 -93.7933 1.38862
O -3.81423 -89.508 4.115
O -1.54617 -89.6584 2.75184
O -3.81406 -89.508 1.38853
Si 4.70854 -93.2619 0.0253427
O 1.24503 -91.7421 0.0252887
Si 1.52488 -93.3641 0.0253524
Si 1.45112 -90.1122 0.0252891
O 0.754789 -93.8819 1.38861
O 3.13028 -93.7354 0.0253812
O 0.754771 -93.8819 4.11511
O 0.725749 -89.5924 1.38857
O 2.99831 -89.6276 0.0253979
O 0.725773 -89.5924 4.11501
O -4.86735 91.5817 0.023688
Si -4.55732 89.9682 0.0234072
O -9.50343 91.2226 2.74981
Si -9.41112 92.866 2.74967
Si -9.11181 89.627 2.74972
O -5.87521 91.5237 2.74978
Si -6.23675 93.1294 2.74988
Si -5.99861 89.8853 2.7499
O -5.49379 93.6855 4.11314
O -7.85889 93.4188 2.74986
O -5.49382 93.6855 1.38662
O -5.24773 89.4029 4.11311
O -7.51927 89.323 2.75002
O -5.24797 89.4029 1.38658
O -14.1149 90.6294 0.0237165
Si -14.1063 92.2754 0.0236605
Si -13.6433 89.0556 0.0236798
O -10.5068 91.1138 0.0228795
Si -10.9494 92.6992 0.0231506
Si -10.5472 89.4713 0.0231897
O -10.2353 93.292 1.38632
O -12.584 92.9061 0.0233705
O -10.2357 93.2921 4.1128
O -9.7728 89.0276 1.38639
O -12.0374 88.8327 0.023408
O -9.77303 89.0275 4.1129
O -18.6911 89.8037 2.7503
Si -18.7657 91.4479 2.7495
Si -18.1402 88.2558 2.74943
O -15.1121 90.4699 2.75051
Si -15.6342 92.0309 2.75019
Si -15.069 88.8275 2.75019
O -14.9515 92.6592 4.11354
O -17.2773 92.1549 2.7498
O -14.9511 92.6591 1.38702
O -14.2734 88.4234 4.11353
O -16.525 88.1143 2.74978
O -14.273 88.4235 1.38704
Si -23.3772 90.3855 0.0232803
O -19.6787 89.5938 0.0217795
Si -20.2792 91.1263 0.0228868
Si -19.5525 87.9557 0.0228447
O -19.6287 91.7882 1.38609
O -21.9265 91.1669 0.0231914
O -19.6292 91.7885 4.11259
O -18.7371 87.5928 1.38601
O -20.9706 87.1698 0.0231565
O -18.7374 87.5923 4.11258
O 14.1316 -90.6718 0.0253521
Si 13.6594 -89.0981 0.0253788
O 18.7074 -89.8446 2.75187
Si 18.7822 -91.4888 2.75188
Si 18.156 -88.2969 2.75183
O 15.1285 -90.5119 2.75192
Si 15.651 -92.0728 2.75186
Si 15.085 -88.8695 2.75189
O 14.9682 -92.7013 4.11515
O 17.2941 -92.1963 2.75186
O 14.9682 -92.7013 1.38861
O 14.2891 -88.4657 4.11514
O 16.5408 -88.156 2.75188
O 14.2891 -88.4657 1.38864
O 23.2352 -88.7866 0.0252793
Si 23.3932 -90.425 0.0253242
Si 22.6063 -87.2688 0.0253047
O 19.6945 -89.6345 0.0253537
Si 20.2955 -91.1668 0.0253726
Si 19.5682 -87.9963 0.0253161
O 19.6455 -91.8291 1.3886
O 21.9428 -91.2067 0.0253194
O 19.6456 -91.8291 4.11512
O 18.7529 -87.6334 1.38859