2688
 Atoms. Timestep: 48547
O 8.58541 4.39272 12.3962
Si 10.3349 4.27882 9.20813
Si 7.08137 4.05337 11.8738
O 9.18535 0.877321 8.0214
Si 10.7708 1.28184 8.31708
Si 7.5518 1.04356 7.77792
O 11.2961 0.476675 9.68289
O 11.0361 2.84149 8.79263
O 11.2754 0.880578 6.76954
O 7.09428 0.399892 9.23668
O 7.03592 3.09682 10.4498
O 7.10853 0.370448 6.3187
O 6.64998 7.43632 6.67048
Si 8.13831 8.07239 6.4218
Si 5.80599 6.40825 7.65745
O 8.76742 3.79965 9.25519
Si 9.86744 5.40269 6.33306
Si 7.13446 3.91496 8.88812
O 10.5576 5.14593 7.81779
O 9.3678 6.97743 6.33722
O 10.5875 4.95439 86.622
O 6.92865 5.08766 10.3608
O 7.15616 5.37471 7.99709
O 7.0386 2.59349 7.90185
O 3.08832 8.77976 12.6466
Si 4.35622 10.2629 9.55978
Si 2.85463 7.3877 11.8403
O 6.21667 7.1926 9.21114
Si 7.07221 8.65877 9.35279
Si 5.53319 6.20893 10.5094
O 7.9489 8.73251 10.756
O 5.94696 9.85368 9.51892
O 7.95167 8.78095 7.93556
O 5.97758 5.48802 12.0704
O 4.00714 6.88789 10.4794
O 5.45706 5.12103 9.01345
O -0.272197 9.03374 7.66441
Si 0.0621795 10.634 7.41262
Si 0.0733066 7.43636 7.89938
O 3.39384 9.04827 8.97812
Si 3.15466 10.424 6.69352
Si 3.04321 7.44121 8.89223
O 3.96223 10.8855 8.06293
O 1.62569 10.9654 6.9995
O 3.79347 10.8086 86.9341
O 2.12283 7.5331 10.3388
O 1.66914 7.13149 8.03733
O 4.18485 6.78317 7.86735
O -4.18463 8.2133 12.7426
Si -4.23125 10.1336 9.77436
Si -3.67271 6.61999 12.549
O -0.844832 9.02975 10.6359
Si -1.19498 10.628 10.3378
Si -1.1208 7.40737 10.8445
O -0.750293 11.1199 11.8742
O -2.78681 10.894 10.0054
O -0.389832 11.1143 8.95392
O -0.420548 6.90223 12.2517
O -2.73588 7.0017 11.0371
O -0.609288 6.92146 9.32962
O -7.06287 6.35297 6.70306
Si -8.01571 7.74578 6.49911
Si -6.10706 5.33941 87.2426
O -3.59776 8.63347 9.68292
Si -5.30327 9.43788 6.8411
Si -3.85402 7.01419 9.6676
O -5.00507 10.2439 8.28881
O -6.88298 8.94572 6.70114
O -5.03145 10.2129 87.1275
O -4.58347 6.2404 11.0516
O -5.31956 6.9979 8.91249
O -3.23064 6.44495 8.27459
O -9.30677 3.54572 12.6348
Si -10.5791 4.34249 9.49641
Si -7.75832 3.03622 12.5646
O -7.52655 6.69742 9.23881
Si -9.08654 7.14759 9.4063
Si -6.40922 5.86594 8.33051
O -8.86014 7.83173 10.9096
O -10.2073 5.94609 9.42353
O -8.95964 7.80379 7.87306
O -5.78312 5.23958 9.74366
O -7.0324 3.92907 11.244
O -5.20527 5.6952 7.0311
O -9.26472 -0.1214 87.3671
Si -10.8727 0.146222 5.88471
Si -7.70785 0.371643 87.1647
O -9.25819 3.35555 9.62556
Si -10.9123 3.26957 6.56408
Si -7.60389 3.15155 9.72724
O -11.2987 3.85518 8.0773
O -11.2949 1.69485 6.27036
O -11.2503 4.03784 86.878
O -7.66987 2.03591 11.1694
O -7.23597 2.62313 8.20007
O -7.37434 4.53856 8.75677
O -8.46704 -3.92877 12.4486
Si -10.24 -4.13576 9.36043
Si -6.82441 -3.57798 12.4172
O -9.18227 -0.704255 8.57036
Si -10.7786 -1.10445 8.79881
Si -7.53764 -0.827401 8.37824
O -11.3227 -0.338719 10.1832
O -11.0073 -2.70424 9.10525
O -11.3026 -0.677716 7.27132
O -7.10777 -0.131532 9.81706
O -6.70486 -2.86101 10.915
O -7.11843 -0.177217 6.89715
O -6.25149 -6.69989 6.52347
Si -7.65014 -7.64089 6.37594
Si -5.35812 -5.98643 86.9099
O -8.69717 -3.5984 9.45103
Si -9.60857 -5.11629 6.45576
Si -7.04916 -3.74322 9.51613
O -10.3441 -4.97505 7.93742
O -8.95433 -6.62764 6.34132
O -10.4184 -4.81031 86.7699
O -6.9254 -4.83759 11.1015
O -6.68496 -4.42382 8.01147
O -6.91486 -2.32903 8.60808
O -3.52576 -9.12451 12.2773
Si -4.23842 -10.241 9.13878
Si -3.01247 -7.59092 12.2108
O -6.09751 -7.17855 9.04359
Si -6.90055 -8.58863 9.25781
Si -5.58114 -5.94062 8.0292
O -7.59806 -8.47435 10.7676
O -5.82606 -9.8237 9.16063
O -7.69375 -8.48338 7.80312
O -5.7055 -5.20034 9.56646
O -3.90082 -6.84135 10.8939
O -5.40298 -4.8904 6.55399
O 0.171474 -8.99714 87.1019
Si -0.0801253 -10.6126 87.3329
Si -0.311784 -7.43396 86.9054
O -3.30993 -8.8652 9.14321
Si -3.20709 -10.7157 6.20604
Si -2.99783 -7.23269 9.39088
O -3.82113 -11.0239 7.72987
O -1.62017 -11.0709 5.96842
O -3.92904 -10.9813 86.4826
O -1.97787 -7.38797 10.8585
O -2.49231 -7.09133 7.81493
O -4.04201 -6.13797 8.64398
O 4.02476 -8.26474 12.1547
Si 4.20635 -10.0223 9.06698
Si 3.69584 -6.61962 12.1217
O 0.773283 -8.92012 8.30283
Si 1.16827 -10.5201 8.51045
Si 0.899277 -7.27495 8.11839
O 0.407121 -11.0633 9.89643
O 2.76487 -10.7697 8.81395
O 0.740937 -11.0421 6.98332
O 0.216219 -6.83833 9.56265
O 2.96951 -6.48061 10.6268
O 0.232074 -6.85223 6.64401
O 6.82298 -6.08531 6.2263
Si 7.74646 -7.4957 6.08077
Si 6.11886 -5.17855 86.6129
O 3.68338 -8.47296 9.14378
Si 5.1981 -9.41973 6.16228
Si 3.83703 -6.82511 9.21902
O 5.04356 -10.1489 7.64515
O 6.71813 -8.78737 6.05182
O 4.87963 -10.2179 86.4736
O 4.94442 -6.72744 10.7976
O 4.53623 -6.48437 7.71883
O 2.41084 -6.66776 8.33295
O 9.28928 -3.39896 11.9828
Si 10.4026 -4.13 8.86815
Si 7.76653 -2.85553 11.9038
O 7.30115 -5.94391 8.74874
Si 8.70283 -6.76225 8.96459
Si 6.07137 -5.4087 7.73374
O 8.57581 -7.46243 10.471
O 9.95746 -5.70956 8.88877
O 8.59181 -7.54799 7.50614
O 5.3197 -5.50302 9.26917
O 7.00048 -3.73618 10.5909
O 5.02464 -5.21361 6.25867
O 9.24054 0.300502 86.8291
Si 10.8451 0.0313508 87.1307
Si 7.67632 -0.161979 86.5747
O 9.03967 -3.18421 8.848
Si 10.8885 -3.10492 5.94003
Si 7.41138 -2.84732 9.08349
O 11.1889 -3.73703 7.45568
O 11.2713 -1.51802 5.75886
O 11.1491 -3.81584 86.2088
O 7.59057 -1.82638 10.5424
O 7.27321 -2.33406 7.50969
O 6.29866 -3.87086 8.33814
O 8.58542 4.39272 18.2346
Si 10.3349 4.27882 15.0466
Si 7.08138 4.05337 17.7122
O 9.18535 0.877325 13.8598
Si 10.7708 1.28184 14.1555
Si 7.5518 1.04356 13.6163
O 11.2961 0.476675 15.5213
O 11.0361 2.8415 14.6311
O 11.2754 0.880586 12.608
O 7.09428 0.399893 15.0751
O 7.03592 3.09682 16.2883
O 7.10853 0.370451 12.1571
O 6.64997 7.43632 12.5089
Si 8.1383 8.07239 12.2602
Si 5.80599 6.40824 13.4959
O 8.76742 3.79966 15.0936
Si 9.86744 5.40269 12.1715
Si 7.13446 3.91496 14.7265
O 10.5576 5.14593 13.6562
O 9.3678 6.97743 12.1756
O 10.5875 4.95439 10.7224
O 6.92865 5.08766 16.1993
O 7.15616 5.37471 13.8355
O 7.0386 2.59349 13.7403
O 3.08832 8.77977 18.485
Si 4.35621 10.2629 15.3982
Si 2.85464 7.38771 17.6787
O 6.21667 7.1926 15.0496
Si 7.07221 8.65878 15.1912
Si 5.53319 6.20893 16.3478
O 7.9489 8.73251 16.5944
O 5.94695 9.85369 15.3573
O 7.95166 8.78096 13.774
O 5.97758 5.48802 17.9089
O 4.00714 6.88789 16.3178
O 5.45706 5.12103 14.8519
O -0.272197 9.03373 13.5028
Si 0.0621809 10.634 13.251
Si 0.0733045 7.43635 13.7378
O 3.39384 9.04827 14.8165
Si 3.15466 10.424 12.5319
Si 3.04321 7.44121 14.7307
O 3.96222 10.8855 13.9014
O 1.62569 10.9654 12.8379
O 3.79347 10.8086 11.0346
O 2.12284 7.53311 16.1772
O 1.66914 7.13148 13.8758
O 4.18485 6.78317 13.7058
O -4.18463 8.21332 18.5811
Si -4.23125 10.1337 15.6128
Si -3.67271 6.62 18.3874
O -0.844831 9.02975 16.4744
Si -1.19498 10.628 16.1763
Si -1.1208 7.40737 16.6829
O -0.750295 11.1199 17.7126
O -2.78681 10.894 15.8438
O -0.389828 11.1143 14.7923
O -0.420552 6.90223 18.0901
O -2.73588 7.00171 16.8755
O -0.609292 6.92145 15.1681
O -7.06287 6.35298 12.5415
Si -8.01572 7.74578 12.3375
Si -6.10707 5.33941 11.343
O -3.59777 8.6335 15.5213
Si -5.30327 9.43789 12.6795
Si -3.85403 7.01421 15.506
O -5.00508 10.2439 14.1272
O -6.88298 8.94572 12.5396
O -5.03146 10.2129 11.228
O -4.58348 6.24042 16.89
O -5.31956 6.99792 14.7509
O -3.23065 6.44497 14.113
O -9.30676 3.54572 18.4733
Si -10.5791 4.34249 15.3348
Si -7.75832 3.03623 18.4031
O -7.52655 6.69743 15.0772
Si -9.08654 7.1476 15.2447
Si -6.40922 5.86596 14.1689
O -8.86015 7.83173 16.7481
O -10.2073 5.94609 15.262
O -8.95964 7.8038 13.7115
O -5.78312 5.23961 15.5821
O -7.0324 3.92908 17.0825
O -5.20528 5.6952 12.8695
O -9.26474 -0.121397 11.4676
Si -10.8727 0.146222 11.7231
Si -7.70786 0.371649 11.2652
O -9.25818 3.35556 15.464
Si -10.9123 3.26957 12.4025
Si -7.60388 3.15156 15.5657
O -11.2987 3.85518 13.9157
O -11.2949 1.69485 12.1088
O -11.2503 4.03784 10.9785
O -7.66986 2.03592 17.0079
O -7.23597 2.62314 14.0385
O -7.37434 4.53857 14.5952
O -8.46705 -3.92878 18.287
Si -10.24 -4.13577 15.1989
Si -6.82441 -3.57798 18.2556
O -9.18227 -0.70426 14.4088
Si -10.7786 -1.10446 14.6372
Si -7.53764 -0.827397 14.2167
O -11.3227 -0.338731 16.0216
O -11.0073 -2.70425 14.9437
O -11.3026 -0.677725 13.1097
O -7.10776 -0.131518 15.6555
O -6.70486 -2.86101 16.7535
O -7.11844 -0.177211 12.7356
O -6.2515 -6.69989 12.3619
Si -7.65015 -7.6409 12.2144
Si -5.35812 -5.98644 11.0104
O -8.69716 -3.59841 15.2894
Si -9.60857 -5.11629 12.2942
Si -7.04916 -3.74322 15.3546
O -10.3441 -4.97506 13.7758
O -8.95433 -6.62764 12.1797
O -10.4184 -4.81031 10.8704
O -6.92539 -4.8376 16.94
O -6.68496 -4.42382 13.8499
O -6.91485 -2.32903 14.4465
O -3.52576 -9.12452 18.1157
Si -4.23842 -10.241 14.9772
Si -3.01247 -7.59092 18.0492
O -6.09751 -7.17856 14.882
Si -6.90055 -8.58865 15.0962
Si -5.58115 -5.94063 13.8676
O -7.59805 -8.47436 16.6061
O -5.82605 -9.82371 14.999
O -7.69375 -8.48339 13.6415
O -5.70549 -5.20034 15.4049
O -3.90082 -6.84136 16.7323
O -5.40298 -4.8904 12.3924
O 0.171474 -8.99714 11.2024
Si -0.0801229 -10.6126 11.4334
Si -0.311786 -7.43396 11.0059
O -3.30993 -8.86521 14.9816
Si -3.20709 -10.7157 12.0445
Si -2.99783 -7.2327 15.2293
O -3.82112 -11.0239 13.5683
O -1.62017 -11.0709 11.8068
O -3.92904 -10.9813 10.5831
O -1.97787 -7.38798 16.6969
O -2.49231 -7.09134 13.6534
O -4.04201 -6.13798 14.4824
O 4.02475 -8.26474 17.9931
Si 4.20636 -10.0223 14.9054
Si 3.69584 -6.61962 17.9601
O 0.773285 -8.92012 14.1413
Si 1.16828 -10.5201 14.3489
Si 0.899276 -7.27495 13.9568
O 0.407119 -11.0633 15.7348
O 2.76487 -10.7697 14.6524
O 0.740938 -11.0421 12.8217
O 0.216217 -6.83833 15.4011
O 2.96951 -6.48061 16.4652
O 0.232072 -6.85223 12.4824
O 6.82298 -6.0853 12.0647
Si 7.74646 -7.49569 11.9192
Si 6.11886 -5.17855 10.7134
O 3.68338 -8.47296 14.9822
Si 5.19811 -9.41972 12.0007
Si 3.83703 -6.82511 15.0574
O 5.04357 -10.1489 13.4836
O 6.71813 -8.78737 11.8902
O 4.87963 -10.2179 10.5741
O 4.94441 -6.72744 16.636
O 4.53623 -6.48437 13.5573
O 2.41084 -6.66776 14.1714
O 9.28928 -3.39896 17.8212
Si 10.4026 -4.13 14.7066
Si 7.76653 -2.85553 17.7422
O 7.30115 -5.9439 14.5872
Si 8.70282 -6.76224 14.803
Si 6.07136 -5.40869 13.5722
O 8.5758 -7.46243 16.3095
O 9.95746 -5.70955 14.7272
O 8.59181 -7.54798 13.3446
O 5.31969 -5.50302 15.1076
O 7.00048 -3.73618 16.4293
O 5.02463 -5.21361 12.0971
O 9.24054 0.300507 10.9296
Si 10.8451 0.0313578 11.2312
Si 7.67632 -0.161976 10.6752
O 9.03966 -3.18421 14.6864
Si 10.8885 -3.10492 11.7785
Si 7.41137 -2.84732 14.9219
O 11.1889 -3.73702 13.2941
O 11.2713 -1.51801 11.5973
O 11.1491 -3.81583 10.3093
O 7.59056 -1.82638 16.3808
O 7.27321 -2.33406 13.3481
O 6.29865 -3.87086 14.1766
O 8.58542 4.39271 24.0731
Si 10.3349 4.27881 20.885
Si 7.08137 4.05336 23.5507
O 9.18535 0.877315 19.6983
Si 10.7708 1.28183 19.9939
Si 7.5518 1.04356 19.4548
O 11.2961 0.476669 21.3597
O 11.0361 2.84149 20.4695
O 11.2754 0.880575 18.4464
O 7.09428 0.399891 20.9135
O 7.03592 3.09681 22.1267
O 7.10853 0.370449 17.9956
O 6.64998 7.43632 18.3473
Si 8.13831 8.07239 18.0986
Si 5.806 6.40824 19.3343
O 8.76742 3.79965 20.932
Si 9.86745 5.40269 18.0099
Si 7.13446 3.91496 20.565
O 10.5576 5.14593 19.4946
O 9.36781 6.97743 18.0141
O 10.5875 4.9544 16.5609
O 6.92865 5.08766 22.0377
O 7.15617 5.37471 19.6739
O 7.0386 2.59349 19.5787
O 3.08832 8.77975 24.3234
Si 4.35623 10.2629 21.2366
Si 2.85463 7.38769 23.5171
O 6.21667 7.19259 20.888
Si 7.07222 8.65876 21.0296
Si 5.5332 6.20893 22.1862
O 7.94891 8.7325 22.4328
O 5.94697 9.85368 21.1958
O 7.95168 8.78095 19.6124
O 5.97758 5.48802 23.7473
O 4.00714 6.88788 22.1562
O 5.45706 5.12103 20.6903
O -0.272204 9.03373 19.3413
Si 0.0621738 10.634 19.0895
Si 0.0733042 7.43635 19.5762
O 3.39385 9.04826 20.655
Si 3.15466 10.424 18.3704
Si 3.04321 7.4412 20.5691
O 3.96223 10.8855 19.7398
O 1.62569 10.9654 18.6764
O 3.79346 10.8086 16.873
O 2.12283 7.53309 22.0156
O 1.66914 7.13149 19.7142
O 4.18485 6.78317 19.5442
O -4.18462 8.21327 24.4195
Si -4.23125 10.1336 21.4512
Si -3.6727 6.61995 24.2258
O -0.84483 9.02974 22.3128
Si -1.19499 10.628 22.0147
Si -1.12079 7.40735 22.5214
O -0.750287 11.1199 23.551
O -2.78682 10.894 21.6823
O -0.389843 11.1143 20.6308
O -0.420535 6.90222 23.9286
O -2.73586 7.00167 22.714
O -0.609278 6.92144 21.0065
O -7.06288 6.35298 18.3799
Si -8.01573 7.74578 18.176
Si -6.10708 5.33943 17.1815
O -3.59776 8.63343 21.3598
Si -5.30329 9.43789 18.5179
Si -3.854 7.01414 21.3445
O -5.00508 10.2439 19.9657
O -6.883 8.94573 18.378
O -5.03147 10.2129 17.0664
O -4.58346 6.24036 22.7285
O -5.31955 6.99788 20.5893
O -3.23064 6.44493 19.9514
O -9.30677 3.54571 24.3117
Si -10.5791 4.34247 21.1733
Si -7.75833 3.0362 24.2415
O -7.52656 6.6974 20.9157
Si -9.08654 7.14757 21.0832
Si -6.40922 5.86594 20.0074
O -8.86014 7.83171 22.5865
O -10.2073 5.94607 21.1004
O -8.95965 7.80379 19.5499
O -5.78312 5.23957 21.4205
O -7.03241 3.92905 22.9209
O -5.20528 5.69521 18.708
O -9.26473 -0.12139 17.306
Si -10.8727 0.146217 17.5616
Si -7.70785 0.37166 17.1036
O -9.2582 3.35553 21.3024
Si -10.9123 3.26957 18.2409
Si -7.60389 3.15155 21.4041
O -11.2987 3.85516 19.7542
O -11.2949 1.69485 17.9472
O -11.2503 4.03784 16.8169
O -7.66988 2.0359 22.8463
O -7.23597 2.62314 19.8769
O -7.37436 4.53857 20.4336
O -8.46704 -3.92878 24.1254
Si -10.24 -4.13577 21.0373
Si -6.8244 -3.57798 24.0941
O -9.18227 -0.704263 20.2472
Si -10.7786 -1.10446 20.4757
Si -7.53764 -0.827407 20.0551
O -11.3227 -0.338721 21.8601
O -11.0073 -2.70425 20.7821
O -11.3026 -0.677728 18.9482
O -7.10777 -0.131541 21.4939
O -6.70486 -2.86101 22.5919
O -7.11844 -0.177209 18.574
O -6.25149 -6.6999 18.2003
Si -7.65014 -7.64091 18.0528
Si -5.35812 -5.98644 16.8488
O -8.69716 -3.59841 21.1279
Si -9.60857 -5.1163 18.1326
Si -7.04916 -3.74323 21.193
O -10.3441 -4.97507 19.6143
O -8.95433 -6.62765 18.0182
O -10.4184 -4.81032 16.7088
O -6.92539 -4.8376 22.7784
O -6.68496 -4.42383 19.6883
O -6.91486 -2.32904 20.2849
O -3.52576 -9.12452 23.9541
Si -4.23842 -10.241 20.8156
Si -3.01246 -7.59093 23.8876
O -6.09751 -7.17856 20.7204
Si -6.90055 -8.58865 20.9347
Si -5.58115 -5.94064 19.706
O -7.59805 -8.47436 22.4445
O -5.82606 -9.82371 20.8375
O -7.69375 -8.48339 19.48
O -5.70549 -5.20035 21.2433
O -3.90081 -6.84136 22.5708
O -5.40298 -4.89041 18.2308
O 0.171473 -8.99715 17.0409
Si -0.0801259 -10.6126 17.2718
Si -0.311786 -7.43397 16.8443
O -3.30993 -8.86521 20.8201
Si -3.20709 -10.7157 17.8829
Si -2.99783 -7.2327 21.0677
O -3.82113 -11.0239 19.4067
O -1.62017 -11.0709 17.6453
O -3.92904 -10.9813 16.4215
O -1.97787 -7.38798 22.5353
O -2.49231 -7.09134 19.4918
O -4.04201 -6.13798 20.3208
O 4.02475 -8.26473 23.8315
Si 4.20635 -10.0223 20.7438
Si 3.69584 -6.61962 23.7986
O 0.773282 -8.92012 19.9797
Si 1.16827 -10.5201 20.1873
Si 0.899276 -7.27496 19.7952
O 0.407117 -11.0633 21.5733
O 2.76487 -10.7697 20.4908
O 0.740936 -11.0421 18.6602
O 0.21622 -6.83833 21.2395
O 2.9695 -6.48061 22.3036
O 0.232073 -6.85224 18.3209
O 6.82298 -6.0853 17.9031
Si 7.74646 -7.49569 17.7576
Si 6.11885 -5.17855 16.5518
O 3.68338 -8.47296 20.8206
Si 5.1981 -9.41972 17.8391
Si 3.83703 -6.82511 20.8959
O 5.04357 -10.1489 19.322
O 6.71813 -8.78737 17.7287
O 4.87963 -10.2179 16.4125
O 4.94441 -6.72744 22.4744
O 4.53623 -6.48437 19.3957
O 2.41084 -6.66777 20.0098
O 9.28928 -3.39897 23.6596
Si 10.4026 -4.13 20.545
Si 7.76654 -2.85553 23.5807
O 7.30115 -5.94391 20.4256
Si 8.70282 -6.76225 20.6414
Si 6.07136 -5.40869 19.4106
O 8.5758 -7.46243 22.1479
O 9.95745 -5.70956 20.5656
O 8.59181 -7.54798 19.183
O 5.31969 -5.50302 20.946
O 7.00048 -3.73618 22.2677
O 5.02463 -5.21361 17.9355
O 9.24054 0.300505 16.768
Si 10.8451 0.0313521 17.0696
Si 7.67632 -0.161976 16.5136
O 9.03967 -3.18421 20.5248
Si 10.8885 -3.10492 17.6169
Si 7.41137 -2.84732 20.7603
O 11.1889 -3.73703 19.1325
O 11.2713 -1.51802 17.4357
O 11.1491 -3.81583 16.1477
O 7.59057 -1.82638 22.2192
O 7.27321 -2.33406 19.1865
O 6.29866 -3.87086 20.015
O 8.58542 4.39272 29.9115
Si 10.3349 4.27882 26.7234
Si 7.08138 4.05338 29.3891
O 9.18535 0.877325 25.5367
Si 10.7708 1.28184 25.8324
Si 7.5518 1.04356 25.2932
O 11.2961 0.476672 27.1982
O 11.0361 2.84149 26.3079
O 11.2754 0.88058 24.2848
O 7.09428 0.399893 26.752
O 7.03592 3.09682 27.9651
O 7.10853 0.370451 23.834
O 6.64998 7.43632 24.1858
Si 8.13831 8.07239 23.9371
Si 5.806 6.40824 25.1727
O 8.76742 3.79965 26.7705
Si 9.86744 5.40268 23.8483
Si 7.13446 3.91496 26.4034
O 10.5576 5.14592 25.3331
O 9.36781 6.97743 23.8525
O 10.5875 4.95439 22.3993
O 6.92866 5.08767 27.8761
O 7.15616 5.3747 25.5124
O 7.03859 2.59349 25.4171
O 3.08834 8.77979 30.1619
Si 4.35622 10.2629 27.0751
Si 2.85465 7.38773 29.3556
O 6.21667 7.1926 26.7264
Si 7.07221 8.65878 26.8681
Si 5.5332 6.20894 28.0247
O 7.94891 8.73251 28.2712
O 5.94697 9.85369 27.0342
O 7.95167 8.78096 25.4508
O 5.97758 5.48803 29.5857
O 4.00715 6.8879 27.9946
O 5.45706 5.12103 26.5287
O -0.272188 9.03374 25.1797
Si 0.0621956 10.634 24.9279
Si 0.073313 7.43637 25.4147
O 3.39385 9.04828 26.4934
Si 3.15468 10.424 24.2088
Si 3.04322 7.44122 26.4075
O 3.96224 10.8855 25.5782
O 1.62571 10.9654 24.5148
O 3.79349 10.8086 22.7114
O 2.12285 7.53314 27.854
O 1.66915 7.13149 25.5526
O 4.18486 6.78318 25.3826
O -4.18462 8.21329 30.2579
Si -4.23123 10.1337 27.2896
Si -3.6727 6.61998 30.0643
O -0.844834 9.02977 28.1512
Si -1.19497 10.6281 27.8531
Si -1.12081 7.40739 28.3598
O -0.75028 11.1199 29.3894
O -2.7868 10.894 27.5207
O -0.389806 11.1143 26.4692
O -0.420551 6.90224 29.767
O -2.73588 7.00172 28.5524
O -0.609292 6.92147 26.8449
O -7.06286 6.35296 24.2183
Si -8.01572 7.74576 24.0144
Si -6.10706 5.33939 23.0199
O -3.59776 8.6335 27.1982
Si -5.30327 9.43785 24.3564
Si -3.85403 7.01421 27.1829
O -5.00506 10.2439 25.8041
O -6.88298 8.94569 24.2164
O -5.03146 10.2129 22.9049
O -4.58348 6.2404 28.5669
O -5.31958 6.99791 26.4278
O -3.23065 6.44495 25.7899
O -9.30678 3.5457 30.1501
Si -10.5792 4.34249 27.0117
Si -7.75833 3.03621 30.0799
O -7.52656 6.69738 26.7541
Si -9.08654 7.14758 26.9216
Si -6.40922 5.86594 25.8458
O -8.86013 7.83172 28.4249
O -10.2073 5.94609 26.9388
O -8.95964 7.80378 25.3883
O -5.78311 5.23958 27.2589
O -7.03241 3.92906 28.7593
O -5.20527 5.69518 24.5464
O -9.26475 -0.121406 23.1444
Si -10.8727 0.146216 23.4
Si -7.70788 0.371637 22.942
O -9.2582 3.35555 27.1409
Si -10.9123 3.26956 24.0794
Si -7.6039 3.15155 27.2425
O -11.2987 3.85518 25.5926
O -11.2949 1.69484 23.7856
O -11.2503 4.03783 22.6553
O -7.66988 2.03591 28.6847
O -7.23598 2.62313 25.7154
O -7.37434 4.53856 26.2721
O -8.46705 -3.92878 29.9638
Si -10.24 -4.13577 26.8757
Si -6.82442 -3.57798 29.9325
O -9.1823 -0.704267 26.0856
Si -10.7786 -1.10446 26.3141
Si -7.53767 -0.827405 25.8935
O -11.3227 -0.338735 27.6985
O -11.0073 -2.70426 26.6205
O -11.3026 -0.677736 24.7866
O -7.1078 -0.131528 27.3323
O -6.70487 -2.86101 28.4303
O -7.11846 -0.177222 24.4124
O -6.25149 -6.6999 24.0387
Si -7.65014 -7.6409 23.8912
Si -5.35812 -5.98644 22.6873
O -8.69717 -3.59841 26.9663
Si -9.60857 -5.1163 23.971
Si -7.04916 -3.74322 27.0314
O -10.3441 -4.97507 25.4527
O -8.95432 -6.62765 23.8566
O -10.4184 -4.81032 22.5473
O -6.92539 -4.8376 28.6168
O -6.68495 -4.42383 25.5267
O -6.91487 -2.32903 26.1234
O -3.52575 -9.12452 29.7926
Si -4.23841 -10.241 26.6541
Si -3.01246 -7.59093 29.726
O -6.0975 -7.17856 26.5589
Si -6.90054 -8.58864 26.7731
Si -5.58114 -5.94063 25.5445
O -7.59804 -8.47435 28.2829
O -5.82604 -9.82371 26.6759
O -7.69374 -8.48339 25.3184
O -5.70548 -5.20034 27.0817
O -3.90081 -6.84136 28.4092
O -5.40298 -4.8904 24.0693
O 0.171475 -8.99715 22.8793
Si -0.0801257 -10.6126 23.1102
Si -0.311782 -7.43397 22.6827
O -3.30992 -8.86521 26.6585
Si -3.20709 -10.7157 23.7213
Si -2.99782 -7.23271 26.9062
O -3.82112 -11.0239 25.2451
O -1.62017 -11.0709 23.4837
O -3.92904 -10.9813 22.2599
O -1.97787 -7.38799 28.3737
O -2.49231 -7.09135 25.3302
O -4.042 -6.13798 26.1593
O 4.02475 -8.26473 29.6699
Si 4.20636 -10.0223 26.5823
Si 3.69584 -6.61961 29.637
O 0.773287 -8.92012 25.8181
Si 1.16828 -10.5201 26.0257
Si 0.899282 -7.27496 25.6337
O 0.407125 -11.0633 27.4117
O 2.76487 -10.7697 26.3292
O 0.740938 -11.0421 24.4986
O 0.216222 -6.83834 27.0779
O 2.96951 -6.48061 28.1421
O 0.232078 -6.85224 24.1593
O 6.82298 -6.0853 23.7416
Si 7.74646 -7.49569 23.596
Si 6.11885 -5.17855 22.3902
O 3.68338 -8.47296 26.6591
Si 5.1981 -9.41972 23.6776
Si 3.83704 -6.82511 26.7343
O 5.04357 -10.1489 25.1604
O 6.71812 -8.78736 23.5671
O 4.87962 -10.2179 22.251
O 4.94442 -6.72744 28.3129
O 4.53623 -6.48437 25.2341
O 2.41084 -6.66777 25.8482
O 9.28928 -3.39897 29.498
Si 10.4026 -4.13001 26.3834
Si 7.76654 -2.85553 29.4191
O 7.30115 -5.9439 26.264
Si 8.70282 -6.76225 26.4799
Si 6.07136 -5.40869 25.249
O 8.5758 -7.46243 27.9863
O 9.95745 -5.70956 26.404
O 8.5918 -7.54798 25.0214
O 5.3197 -5.50302 26.7844
O 7.00048 -3.73618 28.1062
O 5.02463 -5.21361 23.7739
O 9.24054 0.300504 22.6065
Si 10.8451 0.0313515 22.908
Si 7.67632 -0.161977 22.3521
O 9.03967 -3.18421 26.3633
Si 10.8885 -3.10493 23.4553
Si 7.41138 -2.84732 26.5988
O 11.1889 -3.73703 24.971
O 11.2713 -1.51802 23.2741
O 11.1491 -3.81583 21.9861
O 7.59057 -1.82638 28.0576
O 7.27322 -2.33406 25.025
O 6.29866 -3.87085 25.8534
O 8.5854 4.39272 35.7499
Si 10.3349 4.27881 32.5618
Si 7.08136 4.05338 35.2275
O 9.18535 0.87732 31.3751
Si 10.7708 1.28183 31.6708
Si 7.5518 1.04356 31.1316
O 11.2961 0.476666 33.0366
O 11.0361 2.84149 32.1463
O 11.2754 0.880573 30.1232
O 7.09428 0.399892 32.5904
O 7.0359 3.09683 33.8035
O 7.10853 0.370454 29.6724
O 6.64998 7.43634 30.0242
Si 8.13831 8.0724 29.7755
Si 5.806 6.40826 31.0112
O 8.76741 3.79965 32.6089
Si 9.86745 5.40269 29.6868
Si 7.13445 3.91497 32.2418
O 10.5576 5.14593 31.1715
O 9.36781 6.97744 29.6909
O 10.5875 4.9544 28.2377
O 6.92864 5.08767 33.7145
O 7.15616 5.37471 31.3508
O 7.03859 2.59349 31.2556
O 3.08831 8.7798 36.0003
Si 4.35623 10.2629 32.9135
Si 2.85462 7.38773 35.194
O 6.21667 7.19261 32.5648
Si 7.07222 8.65878 32.7065
Si 5.53319 6.20895 33.8631
O 7.94892 8.73251 34.1097
O 5.94698 9.85369 32.8726
O 7.95168 8.78096 31.2893
O 5.97757 5.48803 35.4241
O 4.00713 6.88791 33.8331
O 5.45705 5.12104 32.3671
O -0.272195 9.03373 31.0181
Si 0.0621807 10.634 30.7663
Si 0.0733105 7.43636 31.2531
O 3.39386 9.04829 32.3318
Si 3.15467 10.424 30.0472
Si 3.04321 7.44123 32.2459
O 3.96224 10.8856 31.4166
O 1.6257 10.9655 30.3532
O 3.79347 10.8086 28.5498
O 2.12283 7.53314 33.6924
O 1.66915 7.1315 31.391
O 4.18486 6.78318 31.221
O -4.18462 8.21329 36.0964
Si -4.23125 10.1336 33.1281
Si -3.67269 6.61998 35.9027
O -0.844817 9.02972 33.9896
Si -1.19499 10.628 33.6915
Si -1.12078 7.40734 34.1982
O -0.750303 11.1199 35.2278
O -2.78683 10.894 33.3591
O -0.389852 11.1143 32.3076
O -0.420511 6.90223 35.6054
O -2.73585 7.00166 34.3908
O -0.609269 6.92144 32.6833
O -7.06286 6.35296 30.0568
Si -8.0157 7.74576 29.8528
Si -6.10706 5.33939 28.8583
O -3.59776 8.63341 33.0366
Si -5.30327 9.43788 30.1948
Si -3.85399 7.01412 33.0213
O -5.00508 10.2439 31.6425
O -6.88297 8.94571 30.0548
O -5.03144 10.2129 28.7433
O -4.58344 6.24034 34.4053
O -5.31954 6.99785 32.2662
O -3.23062 6.44491 31.6283
O -9.30679 3.54572 35.9885
Si -10.5791 4.34247 32.8501
Si -7.75836 3.0362 35.9183
O -7.52655 6.69738 32.5925
Si -9.08653 7.14756 32.76
Si -6.40921 5.86591 31.6842
O -8.8601 7.83171 34.2633
O -10.2073 5.94607 32.7772
O -8.95962 7.80378 31.2268
O -5.78311 5.23953 33.0974
O -7.0324 3.92904 34.5978
O -5.20527 5.69518 30.3848
O -9.26476 -0.121401 28.9828
Si -10.8727 0.14621 29.2384
Si -7.70789 0.371643 28.7804
O -9.2582 3.35553 32.9793
Si -10.9123 3.26956 29.9178
Si -7.6039 3.15153 33.081
O -11.2987 3.85516 31.431
O -11.295 1.69484 29.6241
O -11.2504 4.03784 28.4937
O -7.66987 2.03588 34.5232
O -7.23599 2.62311 31.5538
O -7.37435 4.53854 32.1105
O -8.46705 -3.92878 35.8023
Si -10.2401 -4.13578 32.7141
Si -6.82441 -3.57798 35.7709
O -9.18229 -0.704276 31.924
Si -10.7786 -1.10447 32.1525
Si -7.53767 -0.827424 31.7319
O -11.3226 -0.338723 33.5369
O -11.0073 -2.70426 32.4589
O -11.3026 -0.677736 30.625
O -7.10777 -0.131569 33.1708
O -6.70487 -2.86103 34.2687
O -7.11846 -0.17723 30.2508
O -6.25149 -6.69989 29.8772
Si -7.65014 -7.6409 29.7296
Si -5.35811 -5.98644 28.5257
O -8.69719 -3.59843 32.8047
Si -9.60858 -5.1163 29.8095
Si -7.04918 -3.74325 32.8698
O -10.3441 -4.97508 31.2911
O -8.95433 -6.62765 29.695
O -10.4184 -4.81032 28.3857
O -6.92541 -4.83761 34.4552
O -6.68496 -4.42384 31.3652
O -6.91491 -2.32907 31.9618
O -3.52575 -9.12451 35.631
Si -4.23841 -10.241 32.4925
Si -3.01245 -7.59091 35.5645
O -6.09748 -7.17856 32.3973
Si -6.90054 -8.58864 32.6115
Si -5.58113 -5.94063 31.3829
O -7.59806 -8.47435 34.1213
O -5.82605 -9.8237 32.5143
O -7.69374 -8.48338 31.1568
O -5.70551 -5.20036 32.9202
O -3.90081 -6.84135 34.2476
O -5.40298 -4.8904 29.9077
O 0.17148 -8.99716 28.7177
Si -0.0801171 -10.6126 28.9487
Si -0.31178 -7.43397 28.5212
O -3.30992 -8.8652 32.4969
Si -3.20708 -10.7157 29.5597
Si -2.99782 -7.23269 32.7446
O -3.82112 -11.0239 31.0836
O -1.62016 -11.071 29.3221
O -3.92903 -10.9813 28.0983
O -1.97786 -7.38797 34.2122
O -2.4923 -7.09134 31.1686
O -4.042 -6.13797 31.9977
O 4.02475 -8.26473 35.5084
Si 4.20635 -10.0223 32.4207
Si 3.69584 -6.61961 35.4754
O 0.773285 -8.92013 31.6565
Si 1.16828 -10.5201 31.8641
Si 0.899282 -7.27496 31.4721
O 0.407125 -11.0633 33.2501
O 2.76487 -10.7697 32.1676
O 0.740947 -11.0421 30.337
O 0.216226 -6.83834 32.9163
O 2.96951 -6.4806 33.9805
O 0.232078 -6.85224 29.9977
O 6.82298 -6.0853 29.58
Si 7.74646 -7.49569 29.4345
Si 6.11886 -5.17854 28.2287
O 3.68338 -8.47295 32.4975
Si 5.1981 -9.41972 29.516
Si 3.83703 -6.8251 32.5727
O 5.04357 -10.1489 30.9988
O 6.71812 -8.78736 29.4055
O 4.87963 -10.2179 28.0894
O 4.94442 -6.72744 34.1513
O 4.53623 -6.48436 31.0725
O 2.41084 -6.66777 31.6866
O 9.28929 -3.39897 35.3364
Si 10.4026 -4.13 32.2218
Si 7.76655 -2.85553 35.2575
O 7.30115 -5.9439 32.1024
Si 8.70282 -6.76224 32.3183
Si 6.07136 -5.40869 31.0874
O 8.5758 -7.46243 33.8247
O 9.95746 -5.70956 32.2425
O 8.5918 -7.54798 30.8598
O 5.3197 -5.50302 32.6229
O 7.00049 -3.73618 33.9446
O 5.02463 -5.2136 29.6124
O 9.24054 0.300505 28.4449
Si 10.8451 0.0313498 28.7464
Si 7.67633 -0.161974 28.1905
O 9.03967 -3.18421 32.2017
Si 10.8885 -3.10493 29.2937
Si 7.41138 -2.84732 32.4372
O 11.1889 -3.73703 30.8094
O 11.2713 -1.51802 29.1126
O 11.1491 -3.81584 27.8246
O 7.59057 -1.82638 33.8961
O 7.27322 -2.33405 30.8634
O 6.29866 -3.87085 31.6918
O 8.58541 4.39272 41.5883
Si 10.3349 4.27881 38.4003
Si 7.08137 4.05337 41.0659
O 9.18535 0.877318 37.2135
Si 10.7708 1.28183 37.5092
Si 7.5518 1.04356 36.97
O 11.2961 0.47667 38.875
O 11.0361 2.84149 37.9848
O 11.2754 0.880574 35.9617
O 7.09428 0.399892 38.4288
O 7.03591 3.09682 39.642
O 7.10854 0.370444 35.5108
O 6.64999 7.43632 35.8626
Si 8.13832 8.0724 35.6139
Si 5.806 6.40826 36.8496
O 8.76741 3.79965 38.4473
Si 9.86744 5.40268 35.5252
Si 7.13444 3.91496 38.0802
O 10.5576 5.14592 37.0099
O 9.36781 6.97743 35.5294
O 10.5875 4.95438 34.0762
O 6.92864 5.08766 39.5529
O 7.15616 5.37472 37.1892
O 7.03859 2.59349 37.094
O 3.08836 8.7798 41.8387
Si 4.35623 10.2629 38.7519
Si 2.85465 7.38773 41.0324
O 6.21667 7.19262 38.4033
Si 7.07221 8.65879 38.5449
Si 5.53319 6.20894 39.7015
O 7.94891 8.73253 39.9481
O 5.94697 9.85371 38.711
O 7.95167 8.78097 37.1277
O 5.97757 5.48803 41.2625
O 4.00715 6.88791 39.6715
O 5.45705 5.12103 38.2056
O -0.272174 9.03375 36.8565
Si 0.0621907 10.6341 36.6047
Si 0.0733291 7.43638 37.0915
O 3.39384 9.04832 38.1702
Si 3.15467 10.424 35.8856
Si 3.04322 7.44125 38.0843
O 3.96223 10.8856 37.255
O 1.6257 10.9655 36.1916
O 3.79349 10.8086 34.3882
O 2.12285 7.53316 39.5309
O 1.66916 7.13151 37.2295
O 4.18487 6.78323 37.0595
O -4.18459 8.21336 41.9348
Si -4.23124 10.1337 38.9665
Si -3.67268 6.62005 41.7411
O -0.844816 9.02982 39.8281
Si -1.19496 10.6281 39.5299
Si -1.12079 7.40743 40.0366
O -0.750267 11.1199 41.0663
O -2.78679 10.8941 39.1975
O -0.389809 11.1144 38.146
O -0.420533 6.90226 41.4438
O -2.73586 7.00178 40.2292
O -0.609282 6.9215 38.5217
O -7.06284 6.35293 35.8952
Si -8.01569 7.74573 35.6912
Si -6.10703 5.33935 34.6968
O -3.59777 8.63357 38.875
Si -5.30327 9.43787 36.0332
Si -3.85403 7.01428 38.8597
O -5.00507 10.244 37.4809
O -6.88298 8.94568 35.8933
O -5.03148 10.2129 34.5817
O -4.58345 6.24044 40.2437
O -5.3196 6.99792 38.1047
O -3.23064 6.44501 37.4667
O -9.30682 3.54575 41.8269
Si -10.5792 4.34248 38.6885
Si -7.75838 3.03623 41.7567
O -7.52652 6.69751 38.4309
Si -9.08654 7.14756 38.5984
Si -6.4092 5.86593 37.5227
O -8.86009 7.83168 40.1017
O -10.2073 5.94607 38.6156
O -8.95965 7.80374 37.0652
O -5.78307 5.23954 38.9358
O -7.0324 3.92906 40.4362
O -5.20525 5.69517 36.2233
O -9.26471 -0.121424 34.8213
Si -10.8726 0.146212 35.0768
Si -7.70784 0.371617 34.6189
O -9.25824 3.35555 38.8177
Si -10.9123 3.26956 35.7562
Si -7.60393 3.15156 38.9194
O -11.2987 3.85516 37.2694
O -11.2949 1.69484 35.4625
O -11.2504 4.03783 34.3322
O -7.66992 2.03592 40.3616
O -7.23602 2.62314 37.3922
O -7.37434 4.53857 37.9489
O -8.46705 -3.92876 41.6407
Si -10.2401 -4.13576 38.5526
Si -6.82441 -3.57798 41.6093
O -9.18226 -0.704274 37.7624
Si -10.7786 -1.10444 37.9909
Si -7.53763 -0.827422 37.5704
O -11.3227 -0.338698 39.3753
O -11.0073 -2.70423 38.2974
O -11.3026 -0.677717 36.4634
O -7.10778 -0.131535 39.0092
O -6.70487 -2.86103 40.1071
O -7.11841 -0.177243 36.0893
O -6.2515 -6.6999 35.7156
Si -7.65015 -7.6409 35.5681
Si -5.35813 -5.98645 34.3641
O -8.6972 -3.59843 38.6432
Si -9.60858 -5.11629 35.6479
Si -7.04919 -3.74326 38.7082
O -10.3441 -4.97506 37.1296
O -8.95434 -6.62765 35.5335
O -10.4185 -4.81032 34.2241
O -6.92541 -4.83761 40.2937
O -6.68498 -4.42385 37.2036
O -6.91486 -2.32906 37.8002
O -3.52575 -9.1245 41.4694
Si -4.23842 -10.241 38.3309
Si -3.01246 -7.59091 41.4029
O -6.09749 -7.17858 38.2357
Si -6.90055 -8.58865 38.4499
Si -5.58115 -5.94064 37.2213
O -7.59805 -8.47435 39.9598
O -5.82605 -9.82371 38.3528
O -7.69375 -8.48339 36.9952
O -5.70552 -5.20037 38.7586
O -3.90081 -6.84135 40.086
O -5.40298 -4.89041 35.7461
O 0.17148 -8.99715 34.5561
Si -0.0801188 -10.6126 34.7871
Si -0.311777 -7.43397 34.3596
O -3.30993 -8.86519 38.3353
Si -3.20708 -10.7157 35.3982
Si -2.99782 -7.23269 38.583
O -3.82112 -11.0239 36.922
O -1.62016 -11.0709 35.1605