2688
 Atoms. Timestep: 22362
O -40.9476 4.24647 2.8235
Si -42.5037 4.78133 2.73349
Si -39.3126 4.2228 2.6867
O -40.3579 7.8652 2.58519
Si -41.9952 7.95546 2.71977
Si -38.83 7.26817 2.66061
O -42.3236 8.78463 4.11326
O -42.6559 6.43363 2.65318
O -42.3209 8.94123 1.42511
O -38.2721 7.6368 4.13776
O -38.7069 5.68592 2.38749
O -38.0988 8.02988 1.42532
O -41.2093 -0.366477 0.109109
Si -42.8135 -0.00529147 0.016798
Si -39.5839 -0.200412 -0.0293254
O -41.02 3.30845 -0.124501
Si -42.6571 3.20633 0.00123195
Si -39.4374 2.87719 -0.0606338
O -43.0751 3.99102 1.39646
O -43.1445 1.62046 -0.0669554
O -43.0873 4.14838 20.4316
O -38.919 3.29401 1.41767
O -39.1508 1.31879 -0.343064
O -38.7906 3.71254 20.4325
O -40.9589 -4.68549 2.95128
Si -42.5982 -4.62865 2.82562
Si -39.3785 -4.24682 2.86704
O -41.1961 -1.03858 2.74262
Si -42.7984 -1.41725 2.82485
Si -39.5643 -1.16384 2.86809
O -43.2902 -0.576611 4.16467
O -43.1111 -3.04902 2.88585
O -43.3334 -0.7099 1.42424
O -39.0786 -0.288003 4.14399
O -39.0843 -2.68229 3.11837
O -39.0228 -0.65797 1.42333
O -40.2189 -9.31321 0.188204
Si -41.8597 -9.40823 0.127131
Si -38.6969 -8.69911 0.198726
O -40.8621 -5.69485 0.0133427
Si -42.4151 -6.23545 0.106181
Si -39.2274 -5.648 0.141344
O -42.9972 -5.44349 1.43996
O -42.5409 -7.89227 0.176867
O -43.0274 -5.5889 20.4339
O -38.8422 -4.71234 1.40925
O -38.5777 -7.10231 0.392961
O -38.7467 -5.08062 20.4252
O -39.1086 -13.5173 2.68093
Si -40.6104 -14.1868 2.70548
Si -37.4846 -13.2934 2.59749
O -39.8761 -10.8596 2.53437
Si -41.4918 -11.1381 2.7429
Si -38.315 -10.3743 2.73394
O -42.0988 -10.4811 4.13417
O -41.5459 -12.8045 2.70602
O -42.1769 -10.3599 1.4486
O -38.0247 -9.78367 4.21135
O -37.3873 -11.6827 2.57146
O -38.0001 -9.36764 1.50356
O -37.5073 -17.8048 0.38483
Si -38.8784 -18.6786 0.184034
Si -35.9198 -17.4335 0.292204
O -38.5316 -15.2459 -0.311674
Si -40.0839 -15.7469 -0.0313031
Si -37.0091 -14.6322 -0.162377
O -40.7532 -15.1198 1.34694
O -39.9539 -17.4091 0.032894
O -40.8486 -15.0901 20.3713
O -36.8042 -13.8302 1.23064
O -35.973 -15.8681 -0.100007
O -36.757 -13.7457 20.2262
O -35.4084 -21.8006 2.76534
Si -36.6432 -22.8815 2.72477
Si -33.8936 -21.2055 2.59808
O -36.6812 -19.4501 3.20067
Si -38.1813 -20.1055 2.95218
Si -35.3002 -18.5522 3.10437
O -38.9809 -19.5748 4.31039
O -37.8655 -21.7444 2.85531
O -38.9541 -19.5493 1.59391
O -35.119 -17.7555 4.5114
O -34.112 -19.6349 2.91946
O -35.2803 -17.6245 1.77215
O -32.7187 -25.6983 0.108457
Si -33.8868 -26.8622 0.175416
Si -31.3303 -24.8431 0.341247
O -34.2594 -23.5983 -0.110101
Si -35.7436 -24.2918 -0.00562642
Si -33.1132 -22.429 -0.129399
O -36.594 -23.7408 1.3076
O -35.2423 -25.8835 0.118575
O -36.5198 -23.8926 20.3122
O -33.3402 -21.3773 1.08192
O -31.787 -23.3005 0.180843
O -32.9779 -21.8015 20.1074
O -29.5634 -29.2651 2.35625
Si -30.6123 -30.519 2.60424
Si -28.2682 -28.2498 2.43698
O -31.368 -27.3679 2.83524
Si -32.7789 -28.2065 2.85196
Si -30.3451 -26.0995 2.98403
O -33.5808 -27.8965 4.26952
O -32.0774 -29.7206 2.71395
O -33.7119 -27.7598 1.55696
O -30.3272 -25.5237 4.50061
O -28.9199 -26.7856 2.64985
O -30.6793 -25.0301 1.81466
O -26.1288 -32.3047 0.313145
Si -26.9491 -33.7125 0.114139
Si -24.8951 -31.233 0.220642
O -28.1515 -30.5908 -0.00959126
Si -29.3866 -31.6838 -0.0861312
Si -27.1811 -29.2813 -0.252569
O -30.3519 -31.4377 1.24357
O -28.4988 -33.1002 -0.0291021
O -30.2732 -31.4521 20.2601
O -27.4791 -28.3103 1.01702
O -25.6755 -29.8542 -0.10393
O -27.3294 -28.6135 20.0031
O -22.3915 -34.9178 2.92325
Si -23.0382 -36.4135 2.73901
Si -21.3638 -33.6715 2.67416
O -24.5868 -33.4386 3.00405
Si -25.6829 -34.6645 2.87886
Si -23.8492 -31.9681 3.02965
O -26.617 -34.537 4.24153
O -24.6494 -35.9771 2.82668
O -26.6206 -34.5362 1.51693
O -24.0779 -31.2068 4.4425
O -22.2876 -32.3731 2.93528
O -24.2161 -31.1265 1.69211
O -17.9758 -37.2598 0.326161
Si -18.7841 -38.6927 0.138018
Si -17.4404 -35.7015 0.224602
O -20.7893 -35.864 -0.339859
Si -21.616 -37.239 -0.0160342
Si -20.1696 -34.3768 -0.089096
O -22.6012 -37.1272 1.31027
O -20.4191 -38.3875 0.125825
O -22.5071 -37.2811 20.3096
O -20.8601 -33.5836 1.13717
O -18.6254 -34.6145 0.300218
O -20.3002 -33.6576 20.1872
O -13.3328 -39.0851 2.7956
Si -14.1526 -40.5154 2.73719
Si -12.9788 -37.4841 2.68344
O -16.6949 -37.8196 2.52032
Si -17.1588 -39.3757 2.7512
Si -15.8746 -36.4211 2.74374
O -18.0105 -39.4786 4.16576
O -15.8057 -40.3402 2.68487
O -18.1994 -39.5114 1.46142
O -16.1352 -35.8499 4.23772
O -14.2925 -36.5735 2.46545
O -16.4846 -35.5332 1.52636
O -8.82468 -40.3078 0.12717
Si -9.49844 -41.8092 0.0334804
Si -8.62689 -38.6835 -0.00274705
O -12.3518 -39.3764 -0.0931496
Si -12.6115 -40.9981 0.0178303
Si -11.6182 -37.9072 -0.034347
O -13.4924 -41.2378 1.40002
O -11.1595 -41.8045 -0.0349028
O -13.6083 -41.2397 20.4395
O -12.0007 -37.269 1.40711
O -10.0211 -37.9134 -0.251534
O -12.2581 -37.1422 20.4111
O -4.51484 -40.9709 2.98413
Si -4.93209 -42.5571 2.85859
Si -4.63555 -39.3353 2.92129
O -8.16285 -40.4501 2.75614
Si -8.11466 -42.0941 2.84182
Si -7.68421 -38.888 2.89466
O -9.04175 -42.4016 4.17759
O -6.58225 -42.7303 2.92585
O -8.90728 -42.4694 1.43495
O -8.45966 -38.2273 4.15475
O -6.11009 -38.7579 3.2098
O -8.02268 -38.2502 1.44086
O 0.0744765 -41.1951 0.281054
Si -0.146523 -42.8196 0.142433
Si -0.215318 -39.5805 0.200882
O -3.58305 -41.0781 0.0319461
Si -3.35873 -42.7081 0.12537
Si -3.29721 -39.468 0.170283
O -4.24322 -43.1173 1.46273
O -1.76689 -43.1764 0.205778
O -4.10526 -43.1693 20.4458
O -4.1319 -38.9059 1.4414
O -1.7448 -39.1514 0.466596
O -3.72417 -38.8741 20.447
O 5.01703 -40.9108 2.83685
Si 4.852 -42.5475 2.74361
Si 4.66053 -39.3154 2.69727
O 1.34888 -41.1712 2.60311
Si 1.64419 -42.7846 2.73062
Si 1.58461 -39.5476 2.67055
O 0.916187 -43.2953 4.12645
O 3.27817 -43.0739 2.65643
O 0.757734 -43.3293 1.4375
O 1.10358 -39.0866 4.14938
O 3.09742 -39.0712 2.38765
O 0.671562 -39.0106 1.43789
O 9.57979 -40.0977 0.1223
Si 9.59581 -41.743 0.0294867
Si 9.05565 -38.5487 -0.0157054
O 5.97206 -40.7568 -0.115639
Si 6.43449 -42.3301 0.0175398
Si 6.02407 -39.1171 -0.0398662
O 5.76254 -42.917 1.41134
O 8.09003 -42.4406 -0.0536937
O 5.61403 -42.9694 20.4513
O 5.48581 -38.7157 1.43647
O 7.47364 -38.4706 -0.314944
O 5.06203 -38.6857 20.4503
O 13.7095 -38.8707 2.99441
Si 14.0169 -40.4816 2.86436
Si 12.9011 -37.4432 2.92563
O 10.1927 -39.9506 2.75621
Si 10.9398 -41.416 2.85035
Si 9.95022 -38.3344 2.89738
O 10.2243 -42.0877 4.18324
O 12.5972 -41.34 2.93978
O 10.395 -42.093 1.43889
O 8.96458 -38.0719 4.15783
O 11.32 -37.5466 3.21362
O 9.37817 -37.9028 1.43957
O 17.9743 -37.1138 0.282257
Si 18.4649 -38.6783 0.147152
Si 17.0147 -35.7833 0.207434
O 14.6061 -38.575 0.0387511
Si 15.5109 -39.9492 0.132986
Si 14.1806 -36.9965 0.178959
O 14.8773 -40.6961 1.46735
O 17.1501 -39.6905 0.219669
O 15.0423 -40.6829 20.4492
O 13.177 -36.8453 1.44368
O 15.4529 -36.0569 0.489062
O 13.5582 -36.6344 20.4496
O 22.3205 -34.7347 2.83553
Si 22.8721 -36.2847 2.74196
Si 21.3135 -33.4471 2.69519
O 19.1188 -36.5447 2.59832
Si 20.0766 -37.8759 2.72882
Si 18.6368 -34.9765 2.6677
O 19.6397 -38.6482 4.12573
O 21.6765 -37.4356 2.65272
O 19.5055 -38.7496 1.4383
O 18.0112 -34.7664 4.14916
O 19.799 -33.8993 2.38025
O 17.5781 -34.884 1.43823
O 26.079 -32.0349 0.119029
Si 26.8009 -33.5134 0.0259326
Si 24.9348 -30.8673 -0.0206394
O 23.1032 -34.1918 -0.118995
Si 24.2022 -35.4089 0.0134633
Si 22.4475 -32.688 -0.0469058
O 23.8528 -36.2261 1.40948
O 25.7427 -34.7919 -0.0614995
O 23.7332 -36.3412 20.4497
O 21.8005 -32.5517 1.43393
O 23.4796 -31.4855 -0.332734
O 21.3867 -32.7149 20.4494
O 29.2547 -29.1445 2.99422
Si 30.233 -30.4605 2.86264
Si 27.9053 -28.2116 2.9245
O 26.5558 -31.6455 2.75558
Si 27.8667 -32.6396 2.84947
Si 25.6349 -30.2952 2.8966
O 27.5126 -33.5553 4.18248
O 29.3267 -31.8506 2.93882
O 27.67 -33.4852 1.43728
O 24.6337 -30.4864 4.1575
O 26.5273 -28.9919 3.2152
O 24.9355 -30.1518 1.43764
O 32.3301 -25.7002 0.278365
Si 33.4525 -26.8955 0.145409
Si 30.884 -24.9254 0.206936
O 29.9337 -28.4896 0.0386811
Si 31.3488 -29.3291 0.132299
Si 28.8645 -27.2531 0.179176
O 31.1017 -30.2787 1.46574
O 32.7101 -28.3797 0.220785
O 31.2486 -30.1921 20.4473
O 27.8929 -27.5559 1.44144
O 29.6023 -25.856 0.495799
O 28.1525 -27.1916 20.4475
O 35.1961 -21.6574 2.8315
Si 36.3689 -22.8113 2.73814
Si 33.7271 -20.9405 2.69102
O 33.1098 -24.6881 2.59353
Si 34.553 -25.4668 2.72522
Si 31.992 -23.4873 2.66336
O 34.4979 -26.3527 4.12206
O 35.7981 -24.3698 2.64884
O 34.4207 -26.5032 1.4354
O 31.3409 -23.5699 4.14626
O 32.5657 -22.0112 2.37279
O 30.9983 -23.8679 1.43535
O 37.3847 -17.5841 0.115003
Si 38.6808 -18.5976 0.0215852
Si 35.844 -17.038 -0.0253921
O 35.6568 -20.8313 -0.123668
Si 37.1786 -21.442 0.00869174
Si 34.4096 -19.7655 -0.0528668
O 37.2242 -22.3289 1.40525
O 38.2911 -20.2108 -0.0672306
O 37.1651 -22.4866 20.4457
O 33.7721 -19.9225 1.42983
O 34.8111 -18.2334 -0.342594
O 33.4661 -20.2563 20.4456
O 40.8857 4.63927 2.98886
Si 42.5251 4.59575 2.85782
Si 39.3173 4.1581 2.91819
O 41.1868 0.975951 2.75039
Si 42.7789 1.3904 2.84404
Si 39.5556 1.08452 2.89036
O 43.282 0.547429 4.17671
O 43.06 3.02547 2.93379
O 43.3241 0.714559 1.43223
O 39.089 0.179961 4.15278
O 39.0775 2.59142 3.20379
O 39.0133 0.617802 1.43194
O 40.0831 9.19024 0.273445
Si 41.7172 9.32893 0.14243
Si 38.5776 8.53846 0.202621
O 40.7888 5.58362 0.0345226
Si 42.3252 6.17187 0.128329
Si 39.1556 5.51012 0.174473
O 42.919 5.3903 1.46097
O 42.4232 7.82789 0.218236
O 42.9422 5.56085 20.4435
O 38.7925 4.55941 1.43705
O 38.5126 6.95462 0.487283
O 38.6688 4.9849 20.4432
O 38.697 13.9428 2.83193
Si 40.3295 14.1464 2.73769
Si 37.2212 13.2396 2.6917
O 39.773 10.4295 2.59126
Si 41.2803 11.0754 2.72315
Si 38.1379 10.2962 2.66287
O 41.9407 10.4833 4.11983
O 41.1962 12.732 2.64782
O 42.0107 10.3303 1.43274
O 37.7997 9.72917 4.14415
O 37.3343 11.6626 2.37869
O 37.82 9.28274 1.43281
O 36.8809 18.1951 0.116811
Si 38.481 18.5778 0.02266
Si 35.4917 17.3334 -0.0232748
O 38.3375 14.8218 -0.123426
Si 39.7642 15.6303 0.00806781
Si 36.7271 14.5086 -0.0520995
O 40.4857 15.1149 1.40482
O 39.4981 17.2675 -0.0673172
O 40.5722 14.9705 20.4445
O 36.4533 13.9072 1.42896
O 35.7777 15.7783 -0.335933
O 36.523 13.4665 20.4445
O 34.7612 21.9308 2.99232
Si 36.2609 22.5942 2.86091
Si 33.5496 20.8246 2.9209
O 36.6013 18.7507 2.75201
Si 37.8626 19.807 2.84617
Si 35.0813 18.149 2.89208
O 38.6784 19.262 4.17894
O 37.4168 21.4048 2.93624
O 38.6446 19.4303 1.43442
O 35.0474 17.1322 4.15493
O 34.0029 19.3054 3.20445
O 34.7923 17.4924 1.43442
O 32.0902 25.7022 0.277589
Si 33.5077 26.5267 0.146226
Si 31.0082 24.4689 0.206493
O 34.2695 22.7437 0.0370721
Si 35.4065 23.9327 0.131424
Si 32.825 21.9782 0.177335
O 36.2773 23.4806 1.46411
O 34.7875 25.4716 0.22172
O 36.225 23.6444 20.4464
O 32.9033 20.9637 1.43995
O 31.6264 23.0092 0.490682
O 32.6095 21.2943 20.4465
O 28.8063 29.4067 2.83542
Si 30.1949 30.289 2.74162
Si 27.7731 28.1397 2.69557
O 31.2803 26.6898 2.59596
Si 32.3664 27.9186 2.72696
Si 29.8593 25.8698 2.6669
O 33.2161 27.6657 4.12377
O 31.5826 29.3803 2.65139
O 33.3452 27.5571 1.43666
O 29.7959 25.2114 4.14773
O 28.549 26.762 2.38285
O 30.0051 24.818 1.43652
O 25.3465 32.4746 0.120243
Si 26.6291 33.505 0.0265712
Si 24.4603 31.1009 -0.0196023
O 28.1066 30.0475 -0.118718
Si 29.0497 31.3892 0.0121075
Si 26.7847 29.0758 -0.0482722
O 29.9221 31.2317 1.40898
O 28.1088 32.7552 -0.0637552
O 30.0625 31.138 20.4488
O 26.7937 28.415 1.43278
O 25.3842 29.8181 -0.333397
O 27.0458 28.0464 20.4486
O 21.8331 34.9403 2.99734
Si 22.9028 36.1831 2.86549
Si 21.2153 33.4205 2.92639
O 24.8605 32.8552 2.75633
Si 25.545 34.3512 2.85062
Si 23.7453 31.6601 2.89696
O 26.5155 34.2078 4.18354
O 24.457 35.6036 2.94097
O 26.4126 34.3456 1.43847
O 24.1506 30.7263 4.15912
O 22.2769 32.2441 3.21295
O 23.762 30.9443 1.43879
O 17.8014 37.1969 0.282257
Si 18.7259 38.5512 0.150531
Si 17.3581 35.6173 0.211856
O 21.0438 35.4623 0.0418399
Si 21.5564 37.0256 0.135881
Si 20.0685 34.1504 0.18238
O 22.537 36.9911 1.46872
O 20.3352 38.1485 0.22637
O 22.4189 37.1168 20.4504
O 20.5754 33.2673 1.44425
O 18.5447 34.5677 0.499736
O 20.1635 33.4417 20.4508
O 13.2383 39.1229 2.83784
Si 14.1111 40.5175 2.7444
Si 12.8543 37.5339 2.6977
O 16.6451 37.7389 2.59926
Si 17.0941 39.3162 2.73023
Si 15.7151 36.3874 2.66926
O 17.97 39.4543 4.12717
O 15.7555 40.2962 2.65403
O 18.1341 39.4115 1.44045
O 15.9385 35.7681 4.15131
O 14.1494 36.6286 2.38127
O 16.3009 35.5003 1.4403
O 8.79152 40.3877 0.12201
Si 9.50252 41.8714 0.028502
Si 8.58944 38.7656 -0.0183728
O 12.3335 39.3959 -0.116407
Si 12.602 41.0137 0.0146974
Si 11.561 37.9486 -0.0466659
O 13.4568 41.2494 1.41177
O 11.1614 41.8365 -0.0619423
O 13.625 41.2251 20.452
O 11.8512 37.3589 1.43578
O 9.97834 38.0127 -0.336007
O 12.2432 37.1325 20.4519
O 4.56026 41.0767 2.99933
Si 4.98211 42.6613 2.86738
Si 4.66868 39.4397 2.92928
O 8.19631 40.5175 2.75955
Si 8.15941 42.1624 2.85338
Si 7.71171 38.9564 2.90032
O 9.09624 42.4547 4.1864
O 6.63408 42.8156 2.94367
O 8.94293 42.5344 1.44086
O 8.48318 38.2914 4.16174
O 6.13637 38.8454 3.21993
O 8.03321 38.3197 1.44111
O -0.0512951 41.3452 0.283034
Si 0.18851 42.9674 0.151445
Si 0.243064 39.7312 0.213576
O 3.62592 41.2024 0.0442497
Si 3.40219 42.8324 0.137705
Si 3.32119 39.5965 0.184772
O 4.30036 43.229 1.47048
O 1.81239 43.308 0.227984
O 4.13827 43.2908 20.4519
O 4.1636 39.0231 1.44582
O 1.76871 39.3081 0.505234
O 3.71144 39.0004 20.4521
O -4.99901 41.0757 2.83675
Si -4.82397 42.7117 2.74364
Si -4.64667 39.4795 2.69647
O -1.32791 41.3264 2.59889
Si -1.61554 42.9408 2.73021
Si -1.57375 39.7043 2.66823
O -0.88811 43.4488 4.12711
O -3.24876 43.2338 2.65347
O -0.721167 43.4818 1.4409
O -1.10538 39.2461 4.15149
O -3.08634 39.2364 2.37673
O -0.65728 39.1628 1.44078
O -9.54709 40.2549 0.120633
Si -9.55931 41.9001 0.026964
Si -9.01472 38.7095 -0.0202567
O -5.92772 40.923 -0.117451
Si -6.39793 42.494 0.0136674
Si -5.98773 39.2835 -0.0484506
O -5.7335 43.0816 1.41078
O -8.05392 42.5984 -0.063338
O -5.57113 43.1332 20.4511
O -5.47157 38.8816 1.4352
O -7.43709 38.6469 -0.341089
O -5.01524 38.8498 20.4513
O -13.6458 39.0069 2.99637
Si -13.9653 40.6154 2.86494
Si -12.8275 37.585 2.92662
O -10.1355 40.1083 2.75893
Si -10.8932 41.5687 2.85196
Si -9.88311 38.4932 2.89912
O -10.1806 42.2441 4.18492
O -12.5504 41.4823 2.94154
O -10.3535 42.2484 1.43967
O -8.89759 38.2362 4.16061
O -11.2482 37.6987 3.21761
O -9.31465 38.0639 1.43955
O -17.9037 37.2125 0.278712
Si -18.4029 38.7746 0.148195
Si -16.9292 35.8927 0.209943
O -14.5409 38.7064 0.0425965
Si -15.4593 40.0714 0.135468
Si -14.107 37.1304 0.182549
O -14.8279 40.8238 1.46812
O -17.0959 39.7968 0.225208
O -15.0008 40.8082 20.4501
O -13.0982 36.9873 1.44373
O -15.373 36.1856 0.50089
O -13.4933 36.7688 20.4498
O -22.2246 34.7908 2.83461
Si -22.7882 36.3365 2.74078
Si -21.2064 33.5121 2.69405
O -19.0412 36.6328 2.59536
Si -20.0096 37.9561 2.7276
Si -18.5469 35.0685 2.66609
O -19.5805 38.7329 4.12428
O -21.6048 37.4997 2.65159
O -19.4458 38.8355 1.43784
O -17.9238 34.8646 4.14915
O -19.6977 33.9805 2.37637
O -17.486 34.9863 1.43815
O -25.9489 32.0545 0.117696
Si -26.6833 33.5267 0.0235775
Si -24.7929 30.899 -0.0230468
O -22.9929 34.2438 -0.120965
Si -24.105 35.4488 0.0105517
Si -22.3254 32.7452 -0.0509286
O -23.7669 36.2689 1.40747
O -25.6385 34.8156 -0.0659944
O -23.6445 36.386 20.4475
O -21.6831 32.6126 1.4321
O -23.3466 31.5345 -0.34069
O -21.2621 32.783 20.448
O -29.0933 29.135 2.98989
Si -30.0832 30.4425 2.85924
Si -27.7387 28.2094 2.91917
O -26.4202 31.6569 2.75475
Si -27.7379 32.6422 2.84729
Si -25.4864 30.3149 2.89362
O -27.3941 33.5614 4.18031
O -29.1907 31.8409 2.93536
O -27.5499 33.4906 1.43594
O -24.4892 30.5143 4.1568
O -26.3645 28.9994 3.20411
O -24.7826 30.184 1.43546
O -32.1498 25.6644 0.272042
Si -33.2775 26.8552 0.142251
Si -30.7009 24.8945 0.202436
O -29.772 28.4677 0.0373643
Si -31.1905 29.3012 0.130314
Si -28.6958 27.237 0.176554
O -30.9505 30.2533 1.46284
O -32.5454 28.3437 0.218971
O -31.0983 30.165 20.4458
O -27.726 27.5467 1.43897
O -29.423 25.8325 0.487549
O -27.9815 27.1854 20.4453
O -34.9972 21.6177 2.83025
Si -36.1755 22.7659 2.73644
Si -33.5273 20.9019 2.6907
O -32.9242 24.6489 2.5912
Si -34.3688 25.4248 2.72381
Si -31.7988 23.4551 2.66412
O -34.3176 26.3112 4.11996
O -35.6112 24.3259 2.64914
O -34.2427 26.4599 1.43288
O -31.1434 23.5468 4.14471
O -32.3634 21.9734 2.38196
O -30.8094 23.8387 1.43316
O -37.1899 17.5473 0.111545
Si -38.4868 18.5593 0.018
Si -35.6497 16.9998 -0.0283609
O -35.4598 20.7907 -0.123827
Si -36.9823 21.4002 0.00578214
Si -34.211 19.7267 -0.0543709
O -37.0296 22.2855 1.4027
O -38.0963 20.1715 -0.0704983
O -36.9706 22.4424 20.4416
O -33.5693 19.8871 1.42641
O -34.6122 18.1932 -0.339712
O -33.2691 20.2163 20.4421
O -38.7937 13.5581 2.98082
Si -40.2482 14.3154 2.84915
Si -37.1742 13.2959 2.90712
O -37.453 16.9742 2.74637
Si -39.0649 17.3046 2.83901
Si -36.034 16.1617 2.8843
O -39.1479 18.2806 4.1733
O -40.0383 15.961 2.92265
O -39.2557 18.1546 1.42917
O -35.2188 16.7653 4.14986
O -36.2629 14.5947 3.18518
O -35.3382 16.3528 1.4288
O -40.0882 9.10822 0.260064
Si -41.6157 9.70593 0.132109
Si -38.4496 9.02748 0.191383
O -39.1271 12.6558 0.0287653
Si -40.7653 12.8075 0.121657
Si -37.6292 12.0009 0.167475
O -40.9534 13.7708 1.45469
O -41.5853 11.3648 0.206787
O -41.0478 13.6317 20.4386
O -36.8826 12.6933 1.42983
O -37.6892 10.4194 0.473484
O -36.9585 12.2635 20.4382
O 38.9628 -13.5957 2.9902
Si 40.4199 -14.3482 2.8589
Si 37.3408 -13.3496 2.92041
O 37.6383 -17.0279 2.75256
Si 39.2526 -17.3456 2.84589
Si 36.2177 -16.2194 2.89292
O 39.3372 -18.3239 4.17873
O 40.2171 -15.9951 2.9354
O 39.4482 -18.1914 1.43371
O 35.4028 -16.8309 4.1543
O 36.4457 -14.6561 3.21039
O 35.5273 -16.3983 1.4336
O 40.2126 -9.14867 0.273863
Si 41.7455 -9.73121 0.142299
Si 38.5732 -9.0864 0.203465
O 39.2851 -12.7073 0.0357469
Si 40.925 -12.8411 0.12908
Si 37.7819 -12.0651 0.175887
O 41.1202 -13.8033 1.46198
O 41.7306 -11.3904 0.218438
O 41.2152 -13.6596 20.444
O 37.0418 -12.7644 1.43786
O 37.8305 -10.4857 0.491875
O 37.116 -12.3228 20.4438
O 41.015 -4.26049 2.82993
Si 42.5749 -4.78334 2.73591
Si 39.3804 -4.25881 2.68925
O 40.4691 -7.89714 2.58984
Si 42.1074 -7.96527 2.72217
Si 38.9377 -7.30876 2.66076
O 42.4469 -8.78518 4.11891
O 42.7458 -6.43384 2.64635
O 42.4434 -8.95409 1.43219
O 38.3891 -7.66974 4.14346
O 38.8048 -5.73022 2.37228
O 38.212 -8.08647 1.43234
O 41.2022 0.3587 0.114348
Si 42.811 0.0145376 0.0201678
Si 39.5776 0.177482 -0.0262814
O 41.0676 -3.31528 -0.126133
Si 42.7033 -3.19939 0.00619722
Si 39.4797 -2.9031 -0.05486
O 43.1327 -3.97596 1.40286
O 43.1661 -1.60622 -0.0693892
O 43.1484 -4.14383 20.443
O 38.975 -3.32464 1.42745
O 39.1698 -1.34927 -0.342078
O 38.8463 -3.75694 20.4431
O -40.8836 4.56147 8.40317
Si -42.4692 4.98046 8.27212
Si -39.2458 4.65615 8.32723
O -40.3181 8.18365 8.17308
Si -41.9635 8.15643 8.26421
Si -38.7553 7.702 8.30882
O -42.2573 9.08888 9.6003
O -42.6227 6.63291 8.34113
O -42.333 8.94988 6.85672
O -38.0908 8.46445 9.57672
O -38.6333 6.12116 8.5988
O -38.1167 8.04794 6.85593
O -41.1775 -0.0759585 5.67729
Si -42.7992 0.173936 5.55665
Si -39.56 0.200958 5.61353
O -41.013 3.59475 5.45524
Si -42.6453 3.38848 5.54704
Si -39.4079 3.28352 5.59155
O -43.0387 4.28764 6.88078
O -43.1314 1.80068 5.62619
O -43.0999 4.13825 4.14015
O -38.8289 4.12015 6.85453
O -39.1161 1.72578 5.88568
O -38.8109 3.69547 4.13836
O -40.9592 -4.98902 8.24896
Si -42.5956 -4.81252 8.17019
Si -39.359 -4.65009 8.12236
O -41.1748 -1.33436 8.01784
Si -42.7921 -1.60326 8.15574
Si -39.5529 -1.57446 8.09924
O -43.2928 -0.857418 9.54506
O -43.1068 -3.23304 8.10283
O -43.3219 -0.719756 6.85413
O -39.087 -1.08682 9.57236
O -39.0777 -3.08981 7.84055
O -39.0035 -0.681882 6.85845
O -40.2265 -9.49463 5.67578
Si -41.8538 -9.54382 5.4749
Si -38.6813 -9.00908 5.4678
O -40.8341 -5.91302 5.31914
Si -42.4082 -6.37926 5.436
Si -39.1951 -5.98 5.37328
O -42.9878 -5.69689 6.8274
O -42.5412 -8.03409 5.383
O -43.0253 -5.56436 4.12842
O -38.7696 -5.44747 6.84211
O -38.5723 -7.44125 5.12736
O -38.7381 -5.04825 4.12586
O -39.082 -13.6149 8.47611
Si -40.6376 -14.0629 8.21472
Si -37.5866 -13.0283 8.16092
O -40.0052 -10.3047 8.25952
Si -41.5183 -10.9747 8.2616
Si -38.3768 -10.0537 8.32435
O -42.1818 -10.2733 9.61184
O -41.5021 -12.6399 8.27604
O -42.199 -10.363 6.87754
O -38.0601 -9.15436 9.63904
O -37.5445 -11.4346 8.42303
O -38.0129 -9.34238 6.90961
O -37.4808 -17.7691 5.57008
Si -38.9126 -18.5912 5.64834
Si -35.9443 -17.2178 5.80703
O -38.5141 -15.267 5.32173
Si -40.1037 -15.649 5.48246
Si -37.1104 -14.4287 5.43588
O -40.7886 -14.9052 6.79561
O -39.9873 -17.3114 5.61144
O -40.7934 -15.0996 4.07721
O -37.0961 -13.3537 6.64885
O -36.0399 -15.6051 5.72666
O -36.795 -13.8064 3.97126
O -35.2953 -21.9756 7.85336
Si -36.6116 -22.9438 8.09246
Si -33.7921 -21.3102 7.93132
O -36.608 -19.6714 8.17635
Si -38.1614 -20.1794 8.3051
Si -35.299 -18.7234 8.41962
O -38.8416 -19.6885 9.73381
O -37.8424 -21.8176 8.19123
O -38.9736 -19.5218 7.01814
O -35.1742 -18.216 9.9534
O -34.0743 -19.7324 8.1235
O -35.3252 -17.5938 7.25916
O -32.7195 -25.7192 5.69373
Si -33.8366 -26.9177 5.58385
Si -31.2544 -24.9875 5.71535
O -34.2376 -23.6094 5.44056
Si -35.7082 -24.3588 5.3952
Si -32.9962 -22.5467 5.22974
O -36.5788 -23.8929 6.72975
O -35.1958 -25.9501 5.45588
O -36.5137 -23.9105 4.0182
O -33.0487 -21.5475 6.50787
O -31.6714 -23.4588 5.39348
O -32.9728 -21.8453 3.76774
O -29.7139 -29.1431 8.15934
Si -30.6572 -30.4846 8.10636
Si -28.3829 -28.2095 7.97715
O -31.478 -27.2166 8.58086
Si -32.8125 -28.1623 8.34548
Si -30.3832 -25.9885 8.51043
O -33.7068 -27.8396 9.70819
O -32.1195 -29.6804 8.23839
O -33.6914 -27.7799 6.99233
O -30.3836 -25.2125 9.9376
O -28.967 -26.7379 8.30069
O -30.6131 -25.0549 7.20448
O -26.2015 -32.245 5.70802
Si -27.0333 -33.6693 5.59065
Si -25.035 -31.0816 5.74519
O -28.1781 -30.5976 5.23547
Si -29.4508 -31.6257 5.36862
Si -27.3495 -29.1858 5.23801
O -30.4064 -31.2949 6.68256
O -28.5842 -33.0493 5.50705
O -30.2989 -31.4229 3.95873
O -27.8325 -28.2303 6.45183
O -25.8562 -29.7003 5.57984
O -27.3614 -28.5379 3.75053
O -22.0018 -35.1099 7.84835
Si -22.9468 -36.4564 8.07561
Si -21.1595 -33.6895 7.94523
O -24.5269 -33.492 8.03922
Si -25.6109 -34.7053 8.23186
Si -23.7379 -32.092 8.33804
O -26.4397 -34.5845 9.66203
O -24.5474 -35.9902 8.13074
O -26.6508 -34.5437 6.94786
O -23.8779 -31.5717 9.86893
O -22.1908 -32.4483 8.03293
O -24.262 -31.0936 7.17188
O -17.9831 -37.2403 5.72092
Si -18.6561 -38.7269 5.49056
Si -17.1472 -35.8407 5.50309
O -20.6633 -35.867 5.53002
Si -21.4968 -37.286 5.38166
Si -19.8676 -34.4474 5.2577
O -22.4814 -37.3079 6.72259
O -20.2951 -38.442 5.38257
O -22.4446 -37.2791 4.02223
O -20.2879 -33.5826 6.57391
O -18.2699 -34.6973 5.2885
O -20.2299 -33.7688 3.82768
O -13.5303 -39.0284 8.39429
Si -14.2951 -40.478 8.27061
Si -13.2864 -37.4093 8.32076
O -17.0022 -37.7167 8.25709
Si -17.3048 -39.333 8.27649
Si -16.166 -36.3135 8.36249
O -18.2549 -39.4511 9.62834
O -15.9442 -40.2863 8.33104
O -18.1808 -39.5067 6.8774
O -16.7101 -35.503 9.65509
O -14.5924 -36.5221 8.62307
O -16.4003 -35.598 6.92507
O -9.11317 -40.2279 5.70541
Si -9.67968 -41.7666 5.56561
Si -9.03896 -38.5893 5.62432
O -12.642 -39.3259 5.41706
Si -12.7902 -40.9622 5.53625
Si -12.0214 -37.815 5.56567
O -13.7401 -41.1714 6.87481
O -11.3393 -41.7669 5.61509
O -13.6273 -41.2407 4.13229
O -12.7156 -37.0938 6.83891
O -10.439 -37.8326 5.86664
O -12.3171 -37.1308 4.12389
O -4.23955 -41.016 8.2661
Si -4.75342 -42.5788 8.17549
Si -4.24146 -39.381 8.12951
O -7.87661 -40.4747 8.0426
Si -7.93769 -42.1141 8.16496
Si -7.29631 -38.9402 8.10951
O -8.76539 -42.452 9.55836
O -6.40475 -42.7513 8.09474
O -8.91514 -42.456 6.86769
O -7.67532 -38.3784 9.58303
O -5.71524 -38.7994 7.83139
O -8.06378 -38.2216 6.87064
O 0.399342 -41.2176 5.55533
Si 0.058498 -42.8276 5.46299
Si 0.229979 -39.5909 5.41946
O -3.25852 -41.0757 5.31955
Si -3.15508 -42.7125 5.45179
Si -2.85387 -39.4858 5.39804
O -3.94583 -43.1378 6.84239
O -1.56321 -43.182 5.38574
O -4.08995 -43.1597 4.15545
O -3.30708 -38.9726 6.86824
O -1.29773 -39.1629 5.13405
O -3.68885 -38.8598 4.15268
O 4.71228 -40.9238 8.42286
Si 4.65624 -42.5629 8.29507
Si 4.23715 -39.3537 8.35653
O 1.04299 -41.208 8.18751
Si 1.44963 -42.8017 8.28016
Si 1.16279 -39.5783 8.32831
O 0.606033 -43.3012 9.61346
O 3.08334 -43.0901 8.3688
O 0.767341 -43.3431 6.86995
O 0.258369 -39.1056 9.58813
O 2.6717 -39.1089 8.6439
O 0.697114 -39.0319 6.87137
O 9.25233 -40.1468 5.71426
Si 9.3883 -41.7807 5.57773
Si 8.61295 -38.6361 5.63694
O 5.65019 -40.83 5.46913
Si 6.22798 -42.3706 5.56282
Si 5.5806 -39.1964 5.6083
O 5.44856 -42.9609 6.89818
O 7.88366 -42.4798 5.64736
O 5.60657 -42.9836 4.15364
O 4.63795 -38.8286 6.87551
O 7.02803 -38.5554 5.91216
O 5.04547 -38.7082 4.15417
O 14.0164 -38.7887 8.26833
Si 14.2124 -40.422 8.17472
Si 13.3194 -37.31 8.12819
O 10.4941 -39.8448 8.03196
Si 11.1344 -41.3548 8.16143
Si 10.3696 -38.2089 8.10071
O 10.5374 -42.0115 9.55816
O 12.7919 -41.2797 8.0858
O 10.3856 -42.0803 6.87009
O 9.80321 -37.8652 9.58116
O 11.7416 -37.4146 7.8155
O 9.35872 -37.8846 6.87013
O 18.2845 -36.9933 5.55272
Si 18.6606 -38.5951 5.4596
Si 17.4303 -35.5992 5.41361
O 14.906 -38.4317 5.31445
Si 15.7055 -39.8635 5.44716
Si 14.5989 -36.8202 5.38799
O 15.1818 -40.5828 6.84247
O 17.3447 -39.6061 5.37351
O 15.0427 -40.6678 4.15558
O 13.9932 -36.5448 6.86701
O 15.8722 -35.8749 5.10671
O 13.5613 -36.6106 4.155
O 22.0324 -34.8859 8.42704
Si 22.6905 -36.3879 8.29575
Si 20.9269 -33.6738 8.35735
O 18.8422 -36.7181 8.18783
Si 19.8964 -37.981 8.28216
Si 18.247 -35.1959 8.32914
O 19.3467 -38.7941 9.61512
O 21.496 -37.5395 8.37159
O 19.5152 -38.7613 6.87021
O 17.2281 -35.1582 9.58988
O 19.4086 -34.1251 8.64671
O 17.5956 -34.9005 6.87074
O 25.8021 -32.2221 5.71249
Si 26.6278 -33.6387 5.57854
Si 24.5683 -31.1409 5.63967
O 22.8414 -34.3995 5.47097
Si 24.0308 -35.5363 5.56499
Si 22.0765 -32.9548 5.61154
O 23.5776 -36.4057 6.89883
O 25.5709 -34.918 5.65277
O 23.7384 -36.3551 4.15355
O 21.0627 -33.0312 6.8747
O 23.1088 -31.758 5.92587
O 21.3935 -32.7367 4.1539
O 29.5058 -28.9297 8.26522
Si 30.3891 -30.3177 8.17192
Si 28.236 -27.9003 8.12487
O 26.7901 -31.4116 8.02784
Si 28.021 -32.4951 8.15903
Si 25.9707 -29.9903 8.09748
O 27.7676 -33.3457 9.55592
O 29.4815 -31.7073 8.08271
O 27.659 -33.4749 6.86897
O 25.3162 -29.9245 9.57979
O 26.8624 -28.6811 7.80793
O 24.9173 -30.1371 6.8689
O 32.5589 -25.4549 5.54848
Si 33.5935 -26.7343 5.45535
Si 31.1812 -24.5751 5.40844
O 30.143 -28.2276 5.31047
Si 31.4877 -29.1661 5.44281
Si 29.1677 -26.9084 5.38163
O 31.3315 -30.0406 6.83919
O 32.8497 -28.2179 5.36711
O 31.2392 -30.1805 4.15268
O 28.5096 -26.9186 6.86369
O 29.9042 -25.506 5.09295
O 28.1386 -27.1734 4.15245
O 34.9979 -21.925 8.42395
Si 36.2477 -22.9866 8.29243
Si 33.4728 -21.3204 8.35429
O 32.9327 -24.9705 8.18596
Si 34.434 -25.6434 8.27947
Si 31.7311 -23.8624 8.32664
O 34.2954 -26.6155 9.61242
O 35.6783 -24.5453 8.36887
O 34.4333 -26.5116 6.86721
O 30.7989 -24.2744 9.58769
O 32.3066 -22.3915 8.64535
O 31.0182 -23.8799 6.86732
O 37.2166 -17.8745 5.70753
Si 38.5794 -18.7865 5.57538
Si 35.633 -17.446 5.63692
O 35.5116 -21.1336 5.46905
Si 37.0796 -21.6322 5.56238
Si 34.1914 -20.1697 5.60935
O 37.0529 -22.6134 6.89552
O 38.1912 -20.3998 5.65135
O 37.1775 -22.4951 4.15033
O 33.3129 -20.6844 6.87125
O 34.595 -18.6423 5.92643
O 33.4847 -20.2697 4.1503
O 40.8728 4.96998 8.26229
Si 42.51 4.80805 8.16807
Si 39.2786 4.60887 8.1218
O 41.1489 1.30466 8.02158
Si 42.7615 1.60249 8.15387
Si 39.5248 1.53628 8.09304
O 43.275 0.879051 9.55057
O 43.0438 3.23719 8.07839
O 43.3093 0.714015 6.86364
O 39.0703 1.06005 9.57506
O 39.0429 3.04597 7.80688
O 38.9909 0.6172 6.8638
O 40.0337 9.51655 5.54708
Si 41.6787 9.53787 5.45275
Si 38.4893 8.98074 5.40663
O 40.7149 5.9051 5.30643
Si 42.2843 6.38035 5.43838
Si 39.075 5.95423 5.37784
O 42.8751 5.71873 6.83509
O 42.3836 8.03616 5.36296
O 42.9276 5.55868 4.14805
O 38.6762 5.4293 6.85949
O 38.428 7.40112 5.09263
O 38.6468 4.9819 4.14815
O 38.7823 13.6245 8.42177
Si 40.391 13.9431 8.29065
Si 37.3578 12.8106 8.35065
O 39.882 10.1185 8.18238
Si 41.3441 10.8728 8.27635
Si 38.2671 9.86457 8.32235
O 42.0208 10.162 9.60903
O 41.2586 12.5294 8.36625
O 42.0249 10.3339 6.86465
O 38.0113 8.8798 9.58515
O 37.4679 11.2291 8.63452
O 37.8415 9.28783 6.86444
O 37.0008 17.8889 5.70685
Si 38.5645 18.3828 5.57576
Si 35.6747 16.9229 5.6358
O 38.4799 14.5254 5.46705
Si 39.8499 15.4363 5.56121
Si 36.9028 14.0949 5.60714
O 40.6008 14.8045 6.89384
O 39.5825 17.0734 5.65136
O 40.5859 14.9759 4.14947
O 36.7573 13.0878 6.86984
O 35.9583 15.3631 5.91958
O 36.5434 13.4745 4.14934
O 34.608 22.2222 8.26532
Si 36.1561 22.7789 8.17131
Si 33.3221 21.2127 8.12537
O 36.4267 19.0299 8.02526
Si 37.7557 19.9906 8.15665
Si 34.8606 18.5409 8.09665
O 38.5296 19.5577 9.55337
O 37.3112 21.5885 8.08128
O 38.6316 19.4238 6.86621
O 34.655 17.9124 9.57747
O 33.7771 19.6983 7.81323
O 34.7726 17.4829 6.86614
O 31.9058 25.9747 5.55035
Si 33.3832 26.6986 5.45638
Si 30.7391 24.8296 5.41042
O 34.0651 23.0017 5.31065
Si 35.28 24.1032 5.44177
Si 32.5624 22.3434 5.38166
O 36.0967 23.7582 6.83857
O 34.6623 25.6425 5.36622
O 36.2129 23.6363 4.15135
O 32.4268 21.696 6.86247
O 31.3583 23.3746 5.09786
O 32.5913 21.282 4.15122
O 29.0204 29.1554 8.42671
Si 30.3381 30.1316 8.29503
Si 28.0815 27.8101 8.35536
O 31.5129 26.4553 8.18574
Si 32.5113 27.7628 8.28005
Si 30.1618 25.535 8.32608
O 33.4265 27.4095 9.61289
O 31.7264 29.2241 8.3703
O 33.3566 27.5663 6.86812
O 30.3514 24.5352 9.58866
O 28.857 26.4276 8.63994
O 30.0224 24.8317 6.86832
O 25.5873 32.2484 5.71206
Si 26.7889 33.3643 5.58035
Si 24.804 30.807 5.64112
O 28.3641 29.84 5.47107
Si 29.2111 31.2503 5.56546
Si 27.1229 28.7762 5.61162
O 30.1598 31.0002 6.89827
O 28.2691 32.6158 5.65589
O 30.0727 31.1486 4.15334
O 27.4219 27.8032 6.87389
O 25.7281 29.5195 5.92694
O 27.0609 28.0625 4.1536
O 21.5673 35.1392 8.26845
Si 22.7277 36.3055 8.17506
Si 20.8392 33.6755 8.1287
O 24.5801 33.0335 8.02972
Si 25.3685 34.4715 8.16063
Si 23.374 31.9213 8.10021
O 26.2531 34.4118 9.55753
O 24.2816 35.7246 8.08476
O 26.4032 34.3341 6.87056
O 23.4559 31.2663 9.58151
O 21.9 32.5036 7.81446