2640
 Atoms. Timestep: 37682
O 17.8336 3.55988 2.79793
Si 19.4283 3.82497 3.08295
Si 16.2311 3.84189 2.95325
O 17.9014 1.53235 5.07074
Si 19.4479 1.06516 4.74491
Si 16.2831 1.52365 4.8523
O 19.9409 0.886648 6.33173
O 10.9554 18.8471 3.84459
O 8.77844 -16.5498 4.43424
O 15.6509 1.16986 6.29353
O 10.0734 14.7852 3.80387
O 7.26733 -13.0459 4.75964
O 17.5305 5.92412 -1.94204
Si 19.0634 6.4857 -1.7036
Si 15.899 5.79466 -1.82647
O 17.7484 3.78524 0.110276
Si 19.3783 3.70348 -0.0911199
Si 16.1679 3.36895 -0.0324396
O 19.9201 3.79941 1.48597
O 7.90674 19.4426 -0.983093
O 10.9643 -15.2183 -0.382399
O 15.6311 3.54521 1.48338
O 7.08331 15.2253 -1.1285
O 8.20391 -12.2221 -0.597746
O 16.8846 8.99833 2.70349
Si 18.467 9.42197 3.00061
Si 15.2769 8.6157 2.80796
O 17.4774 6.80772 4.8829
Si 19.095 6.69909 4.61417
Si 15.9342 6.33584 4.67939
O 19.5882 6.67372 6.20946
O 5.26696 19.7594 3.88232
O 13.4289 -13.1509 4.41051
O 15.3757 5.90967 6.13311
O 5.47248 15.5998 4.07521
O 10.8586 -9.9246 4.68313
O 15.9864 11.5465 -1.78625
Si 17.5659 12.0412 -1.70386
Si 14.5681 10.7324 -2.02593
O 16.8147 8.97038 0.0534599
Si 18.406 9.30275 -0.176593
Si 15.3159 8.36699 -0.223704
O 18.9359 9.48134 1.39665
O 2.13617 19.6256 -0.867889
O 15.1772 -11.2535 -0.483865
O 14.7387 8.39037 1.29686
O 2.12367 15.4471 -1.08908
O 11.6711 -9.03127 -0.716304
O 15.4488 13.8945 2.67558
Si 16.7333 14.8032 3.061
Si 15.0233 12.5042 1.90508
O 16.4095 11.5169 4.98934
Si 17.8592 12.1786 4.61946
Si 14.9199 11.1154 4.44939
O 18.1934 12.2724 6.25581
O -0.444014 19.3004 4.013
O 16.9938 -8.59376 4.25365
O 14.2332 10.7528 5.88318
O 0.704648 15.2958 4.23427
O 13.6418 -6.14703 4.50653
O 13.3396 16.1998 -2.21999
Si 14.6498 16.9966 -1.6653
Si 12.9337 14.7312 44.6685
O 15.0973 13.5126 0.336903
Si 16.3209 14.5847 -0.104273
Si 13.4334 13.0593 -0.469049
O 16.9632 14.99 1.39988
O -3.50919 18.4963 -0.738998
O 18.1412 -6.27568 -0.6418
O 13.6047 12.39 1.0458
O -2.60225 14.4326 -0.96165
O 14.174 -5.05279 -0.887712
O 11.2853 16.6135 2.56751
Si 12.1108 17.9599 3.01041
Si 11.0732 15.0007 2.56463
O 13.7865 15.1556 5.08395
Si 14.6005 16.5712 4.67314
Si 13.3049 13.7173 4.04869
O 14.9646 17.2027 6.18091
O -5.90709 17.5728 4.15134
O 19.1917 -3.25058 4.09004
O 12.5377 13.6553 5.50887
O -3.89249 13.937 4.38377
O 15.3124 -1.77062 4.3368
O 8.73785 17.1707 -1.71675
Si 9.25431 18.7513 -1.72262
Si 8.41384 15.5661 -1.96891
O 11.2119 16.6204 -0.30254
Si 12.0152 18.0644 -0.170298
Si 10.9469 15 -0.422091
O 12.2413 18.4778 1.42732
O -8.73272 16.1084 -0.634691
O 19.6694 -0.678047 -0.79297
O 10.645 14.553 1.08887
O -6.94538 12.3536 -0.828028
O 15.5073 -0.494468 -1.02839
O 6.21467 17.6425 2.74294
Si 6.60409 19.211 3.02285
Si 6.4423 16.0331 2.87083
O 9.49258 17.1525 4.81282
Si 9.44902 18.7769 4.59059
Si 8.93933 15.6479 4.5494
O 9.41673 19.2499 6.18606
O -10.8089 14.6385 4.23515
O 19.9306 2.46263 3.93466
O 8.34318 15.1682 5.96002
O -8.16912 11.7239 4.52159
O 15.7903 2.88572 4.16475
O 3.30415 17.6616 -1.9485
Si 3.57915 19.2604 -1.65534
Si 3.45131 16.0393 -1.77878
O 6.52699 17.4964 -0.0529609
Si 6.47336 19.1391 -0.153652
Si 6.03979 15.9287 -0.121596
O 6.59212 19.6804 1.41991
O -13.2679 12.608 -0.634299
O 19.7084 5.13224 -0.925993
O 6.12966 15.4289 1.41044
O -10.8153 9.40819 -0.858305
O 15.5578 4.38986 -1.11722
O 1.05399 17.45 2.87917
Si 0.979187 19.0696 3.15059
Si 1.60001 15.9141 3.04782
O 4.20059 17.7354 4.98529
Si 3.85084 19.3158 4.67508
Si 4.1172 16.1172 4.76352
O 3.69785 19.813 6.26154
O -14.9883 10.7743 4.18015
O 19.2418 8.16351 3.79907
O 3.76109 15.5068 6.2145
O -11.836 8.56358 4.47564
O 15.0819 7.44168 3.88714
O -1.95198 16.86 -1.83798
Si -2.02299 18.4776 -1.52973
Si -1.44017 15.3195 -1.63436
O 1.17333 17.441 0.236973
Si 0.81636 19.0252 -0.0154535
Si 1.06162 15.8142 0.0645466
O 0.826321 19.5654 1.56384
O -16.9418 8.24585 -0.757738
O 18.412 10.7974 -0.949757
O 1.40077 15.2963 1.56304
O -14.0139 5.68228 -1.03034
O 14.5597 9.28606 -1.31519
O -4.0276 16.1173 3.01636
Si -4.47387 17.6754 3.28339
Si -3.15451 14.7432 3.20059
O -1.02276 17.1085 5.11909
Si -1.73162 18.5625 4.80473
Si -0.737336 15.5113 4.91233
O -2.01093 19.0297 6.38258
O -18.2689 6.11998 4.05296
O 17.7035 13.6837 3.87265
O -0.950497 14.861 6.37935
O -14.7361 4.8039 4.34938
O 15.6024 11.223 2.83279
O -6.838 14.8665 -1.71781
Si -7.27466 16.4249 -1.41025
Si -6.00261 13.4796 -1.48861
O -3.9505 16.1429 0.394284
Si -4.6475 17.6062 0.120003
Si -3.693 14.5325 0.219928
O -4.75088 18.13 1.70155
O -19.6554 3.26495 -0.836873
O 15.7569 15.9952 -0.866316
O -3.21823 14.1029 1.71096
O -16.3431 1.32718 -1.33317
O 13.9825 13.7406 -1.91506
O -8.45312 13.8868 3.00805
Si -9.46161 15.1298 3.36978
Si -7.53866 12.5669 3.30404
O -6.05237 15.2543 5.23739
Si -7.00723 16.5659 4.92434
Si -5.34928 13.7824 5.04756
O -7.37559 16.9661 6.50225
O -20.0023 0.69125 3.96987
O 13.5595 17.5821 3.7959
O -5.39437 13.1366 6.53514
O -16.4765 0.872893 3.9316
O 12.4368 14.2437 2.83876
O -11.0421 11.9469 -1.73085
Si -11.9235 13.285 -1.373
Si -10.0399 10.6913 -1.4354
O -8.70354 13.6863 0.515738
Si -9.65961 14.9935 0.212067
Si -8.05181 12.1884 0.334181
O -9.87273 15.4935 1.79171
O -20.653 -2.26672 -0.772821
O 10.7404 18.877 -0.934931
O -7.51041 11.8757 1.83439
O -17.3567 -2.83196 -1.68989
O 9.63813 14.7588 -1.31579
O -12.4249 10.6954 3.02052
Si -13.7833 11.5728 3.33448
Si -11.3429 9.49127 3.25246
O -10.7704 12.1458 5.25909
Si -11.7371 13.4459 4.95788
Si -9.52738 11.0855 5.08219
O -12.1569 13.786 6.53815
O -19.7713 -5.01975 4.01903
O 8.11552 19.3546 3.74587
O -9.38423 10.4731 6.58116
O -15.6567 -4.18067 3.86715
O 7.92372 15.664 3.31075
O -14.4515 8.30415 -1.73572
Si -15.7807 9.22836 -1.45394
Si -13.3858 7.07297 -1.53156
O -13.0168 10.0449 0.499932
Si -13.9942 11.3398 0.185206
Si -11.8293 8.9271 0.301023
O -14.2767 11.8132 1.7598
O -18.9984 -7.6954 -0.756385
O 5.01365 19.5875 -0.848956
O -11.198 8.79448 1.79293
O -15.2044 -6.32438 -0.651833
O 4.56596 15.6543 -0.686342
O -15.7477 6.67501 2.85663
Si -17.2751 7.1822 3.21669
Si -14.4265 5.73721 3.06884
O -14.4726 8.31315 5.1548
Si -15.6656 9.41052 4.87648
Si -13.0073 7.59526 4.9785
O -16.1368 9.64622 6.45885
O -18.1332 -10.4674 3.93514
O 2.41137 19.5798 3.85672
O -12.7485 6.97772 6.46075
O -14.2172 -8.98992 3.81344
O 3.10946 15.7853 3.55447
O -17.2213 3.83855 -1.88037
Si -18.719 4.44611 -1.56323
Si -15.9304 2.82983 -1.73674
O -16.2632 5.74226 0.366555
Si -17.4249 6.87721 0.0748235
Si -14.8414 4.95404 0.151381
O -17.8041 7.30329 1.64012
O -17.0335 -13.0299 -0.778786
O -0.705395 19.1226 -0.715081
O -14.1674 5.0204 1.63244
O -13.2671 -11.0601 -1.09456
O -0.351099 15.2641 -0.449104
O -18.058 2.22393 2.5226
Si -19.591 2.08934 3.11422
Si -16.5137 1.72363 2.56569
O -17.2081 3.84071 5.00434
Si -18.6195 4.64683 4.77288
Si -15.6074 3.54351 4.80672
O -19.1441 4.77804 6.34746
O -15.7051 -15.6891 4.02073
O -3.18932 18.4954 3.9801
O -15.2511 2.9256 6.27037
O -13.7593 -11.8164 3.67972
O -1.65271 14.9511 3.71119
O -18.9325 -0.629827 -1.82046
Si -20.5328 -0.805214 -1.5969
Si -17.6365 -1.39398 -2.45151
O -18.4807 0.912948 0.181774
Si -19.852 1.82452 -0.00928072
Si -16.9374 0.426808 -0.125997
O -20.2501 2.08605 1.58343
O -13.6301 -17.7024 -0.647604
O -6.14973 17.3517 -0.580497
O -16.1806 0.857236 1.24285
O -12.3107 -13.8323 -0.950082
O -4.95203 13.6833 -0.28477
O -18.0258 -3.60203 2.84793
Si -19.6403 -3.58539 3.16587
Si -16.4491 -3.16594 2.90236
O -18.2299 -0.957652 5.31579
Si -19.8109 -0.780409 4.78622
Si -16.6415 -0.593185 4.47694
O -20.6905 -0.799574 6.21664
O -10.7671 -18.5664 3.99539
O -8.42828 16.2272 4.10369
O -16.38 -0.911643 6.06915
O -9.54395 -14.4599 3.80467
O -6.09246 12.9488 3.88454
O -17.5505 -5.6046 -1.82287
Si -19.0493 -6.22801 -1.55188
Si -15.9466 -5.31002 -1.6575
O -18.3147 -3.24132 0.369981
Si -19.8987 -3.54656 0.0183596
Si -16.7778 -2.82158 -0.0876045
O -20.2925 -3.67207 1.6358
O -8.13542 -19.3548 -0.712
O -11.065 14.4402 -0.514761
O -16.0417 -3.01749 1.35028
O -7.75185 -15.2057 -0.577769
O -9.05121 11.0653 -0.221132
O -16.6819 -8.26266 3.01143
Si -18.1728 -8.96562 3.18704
Si -15.076 -7.88075 3.03372
O -17.3638 -6.07915 4.83124
Si -19.0028 -6.30419 4.76385
Si -15.821 -5.49943 4.78232
O -19.5021 -6.42486 6.34523
O -5.08979 -19.6371 4.01667
O -13.0651 12.8819 4.10282
O -15.3521 -5.30014 6.32138
O -4.53211 -15.441 3.83812
O -9.9958 10.074 3.91546
O -15.7983 -10.741 -1.82098
Si -17.2273 -11.5507 -1.54913
Si -14.2781 -10.0803 -1.86233
O -16.5763 -8.58889 0.136962
Si -18.1798 -8.92932 0.0139217
Si -15.1458 -7.80387 -0.0219422
O -18.6524 -9.09557 1.59897
O -2.44954 -19.7703 -0.611446
O -15.2692 10.5689 -0.586849
O -14.5855 -7.71404 1.49825
O -2.99494 -15.6436 -0.382072
O -12.4095 7.57047 -0.346473
O -14.8424 -13.3899 3.09671
Si -16.2268 -14.3086 3.25935
Si -14.8366 -11.9289 2.10477
O -15.8588 -11.0001 5.13324
Si -17.3237 -11.6634 4.78976
Si -14.4042 -10.4071 4.5923
O -17.775 -11.7865 6.38628
O 0.671565 -19.4531 4.1336
O -16.8526 8.60215 4.00928
O -13.8321 -10.0318 6.0733
O 0.377435 -15.2886 3.91753
O -13.2292 6.5713 3.75063
O -13.3438 -15.6674 -1.99019
Si -14.5745 -16.5947 -1.46167
Si -13.0561 -14.188 -2.62162
O -14.8977 -12.9846 0.545387
Si -16.0763 -14.0994 0.100323
Si -13.3143 -12.4776 -0.309796
O -16.6106 -14.4624 1.64369
O 3.21993 -18.9566 -0.472267
O -18.5126 5.87056 -0.708685
O -13.4655 -11.7429 1.17528
O 1.72844 -15.0798 -0.222363
O -15.1009 3.50097 -0.515187
O -11.1 -16.2962 2.90289
Si -11.9552 -17.6673 3.22593
Si -10.7778 -14.6926 2.78727
O -13.6964 -14.8617 5.21497
Si -14.4319 -16.3304 4.88768
Si -13.3117 -13.46 4.0505
O -14.8749 -16.8705 6.40063
O 6.2348 -17.9253 4.26918
O -19.5756 3.54637 3.94645
O -12.7323 -13.1536 5.59119
O 4.99199 -13.9515 4.05715
O -15.5392 2.69319 3.42655
O -8.76981 -17.134 -1.8761
Si -9.39028 -18.6185 -1.54429
Si -8.7606 -15.5072 -1.79207
O -11.9497 -16.2212 0.171878
Si -12.1269 -17.8522 0.0741456
Si -11.2306 -14.8067 -0.194297
O -12.2186 -18.2448 1.68697
O 8.55365 -16.7897 -0.331089
O -20.7346 0.635104 -0.781711
O -10.5654 -14.3762 1.21255
O 6.15753 -13.4459 -0.0480694
O -16.9852 -1.0998 -0.766847
O -5.99631 -17.467 3.00639
Si -6.45641 -19.0356 3.24395
Si -5.90475 -15.8276 3.08752
O -9.10822 -16.8474 4.69365
Si -9.27545 -18.4902 4.76266
Si -8.49051 -15.3205 4.68636
O -9.45924 -19.0309 6.32694
O 11.2255 -15.0104 4.35368
O -20.131 -2.17439 3.91516
O -8.37702 -14.9202 6.24509
O 9.09941 -11.5376 4.15522
O -16.1358 -1.70282 3.46392
O -3.64528 -17.7017 -1.74632
Si -3.82193 -19.3098 -1.46081
Si -3.96366 -16.1047 -1.58061
O -6.80533 -17.4894 0.370987
Si -6.68074 -19.1064 0.0845873
Si -6.48477 -15.9072 0.120016
O -6.62594 -19.5869 1.68028
O 13.1362 -13.3089 -0.322809
O -19.9123 -5.01798 -0.779767
O -6.01927 -15.3313 1.55261
O 10.181 -10.9407 0.0272149
O -15.8388 -3.88163 -0.919467
O -0.635643 -17.5724 3.05243
Si -0.795146 -19.1851 3.35073
Si -0.910898 -15.9687 3.23394
O -3.84003 -17.6278 5.04467
Si -3.68659 -19.2548 4.85913
Si -3.48567 -16.0313 4.91332
O -3.77113 -19.8004 6.43249
O 15.2878 -10.9249 4.23388
O -19.0572 -7.78331 3.97851
O -3.67634 -15.5029 6.43266
O 12.6041 -8.24303 3.94729
O -14.9341 -6.56593 3.95648
O 1.55961 -17.2173 -1.61272
Si 1.77949 -18.8211 -1.32869
Si 0.89042 -15.7315 -1.43206
O -1.55781 -17.7059 0.511828
Si -1.07077 -19.2487 0.195955
Si -1.60428 -16.0868 0.290169
O -0.885432 -19.7412 1.77998
O 16.727 -8.81133 -0.467051
O -18.1598 -10.4135 -0.754979
O -1.28171 -15.4568 1.74414
O 13.2433 -7.29865 -0.15997
O -14.2669 -8.68286 -1.05581
O 4.55194 -16.4152 3.17587
Si 4.74559 -18.0224 3.48472
Si 3.90907 -14.9241 3.37345
O 1.46156 -17.2145 5.24637
Si 1.94394 -18.7654 4.99312
Si 1.45347 -15.5834 5.07923
O 1.96542 -19.3067 6.57209
O 18.1676 -5.94675 4.08005
O -17.1818 -13.1786 4.0703
O 1.06574 -15.0932 6.5757
O 14.8709 -4.06213 3.77049
O -15.2653 -10.6401 3.0996
O 6.51928 -15.5454 -1.48611
Si 7.12976 -17.0391 -1.19061
Si 5.51825 -14.2688 -1.27288
O 3.60511 -16.7669 0.662208
Si 4.45508 -18.1405 0.33136
Si 3.18269 -15.2026 0.449769
O 4.76886 -18.5812 1.9115
O 18.9841 -3.50425 -0.629101
O -15.6258 -15.5477 -0.654027
O 3.3742 -14.5157 1.90187
O 15.2055 -2.93339 -0.344265
O -13.9684 -13.0707 -1.76265
O 9.192 -14.045 3.24613
Si 9.81238 -15.5252 3.59331
Si 8.25119 -12.7437 3.52483
O 6.45798 -15.5643 5.41001
Si 7.30113 -16.9483 5.13129
Si 6.06945 -13.979 5.2535
O 7.44698 -17.4672 6.71297
O 19.6308 -0.396694 3.93601
O -13.371 -17.3502 4.07471
O 5.54741 -13.5986 6.73948
O 15.9503 0.562579 3.60666
O -12.0509 -13.7606 3.09803
O 10.5907 -13.0309 -1.5069
Si 11.8579 -14.0162 -1.15693
Si 9.6054 -11.7641 -1.22727
O 8.52002 -14.4609 0.782895
Si 9.57206 -15.6908 0.435543
Si 7.59075 -13.1169 0.593638
O 9.97229 -16.0586 2.01737
O 19.7619 2.22025 -0.786116
O -10.8833 -18.5967 -0.772946
O 7.57788 -12.4648 2.07745
O 15.8739 1.88886 -0.563552
O -10.2007 -14.9613 -1.40415
O 12.7801 -10.8781 3.265
Si 14.0677 -11.8555 3.54438
Si 11.8375 -9.55551 3.46206
O 11.1999 -12.4572 5.51226
Si 12.0814 -13.816 5.17271
Si 10.1466 -11.2064 5.33475
O 12.3204 -14.3131 6.75171
O 19.6323 5.32472 3.8114
O -7.92234 -19.1671 4.04371
O 9.53515 -11.0189 6.82362
O 15.8576 5.30635 3.44797
O -7.05432 -15.1507 3.98629
O 14.1769 -9.27917 -1.60755
Si 15.6871 -9.8542 -1.28157
Si 12.9092 -8.26981 -1.39972
O 12.8309 -10.8272 0.670866
Si 13.9383 -12.0059 0.377195
Si 11.4034 -10.0373 0.5106
O 14.3912 -12.2865 1.96204
O 19.1198 7.97317 -0.919756
O -5.30025 -19.5939 -0.728114
O 11.1883 -9.40561 1.98581
O 15.2649 6.86774 -0.804628
O -5.44319 -15.7575 -1.09392
O 15.7374 -6.56736 3.10955
Si 17.2409 -7.16801 3.38871
Si 14.4807 -5.52929 3.28106
O 14.7883 -8.38819 5.39083
Si 15.8776 -9.57821 5.05236
Si 13.3846 -7.5778 5.18795
O 16.2182 -10.0149 6.62941
O 18.5804 10.923 3.75785
O -2.20182 -19.6037 4.16236
O 12.6694 -7.59877 6.63709
O 14.5267 9.74974 3.65145
O -2.01728 -15.6889 4.37002
O 16.6512 -4.61999 -1.76461
Si 18.2577 -4.78941 -1.43783
Si 15.1602 -3.98147 -1.56485
O 15.7688 -6.49157 0.498287
Si 17.1511 -7.33491 0.220425
Si 14.1849 -6.10637 0.327619
O 17.6655 -7.48591 1.80363
O 17.3555 13.5349 -0.935482
O 0.38565 -19.4209 -0.616549
O 13.8126 -5.5595 1.8061
O 13.4813 11.6361 -1.25477
O -0.626519 -15.7074 -0.93079
O 17.4458 -1.62401 2.94482
Si 19.0533 -1.80825 3.23031
Si 15.9608 -0.953248 3.1138
O 17.0082 -3.63104 5.22721
Si 18.3752 -4.4899 4.89445
Si 15.442 -3.21853 5.01655
O 18.8158 -4.81186 6.4743
O 15.9891 16.057 3.88347
O 3.47472 -18.7532 4.30358
O 14.7521 -3.4206 6.46318
O 14.2855 12.533 3.56583
O 2.82897 -14.9469 4.56808
O 17.7797 0.566824 -1.88726
Si 19.3846 0.787648 -1.58332
Si 16.1699 0.800708 -1.70989
O 17.4424 -1.50915 0.320816
Si 18.9981 -1.96908 0.0607089
Si 15.8125 -1.54264 0.152617
O 19.5396 -1.98953 1.64151
O 13.5406 17.977 -0.858945
O 5.91145 -17.9546 -0.484977
O 15.3171 -1.14289 1.64135
O 12.2206 14.2661 -1.13519
O 4.0401 -14.6218 -0.782537
O 17.8336 3.55988 12.2854
Si 19.4283 3.82497 12.5704
Si 16.2311 3.8419 12.4407
O 17.9014 1.53235 14.5582
Si 19.4479 1.06516 14.2323
Si 16.2831 1.52365 14.3397
O 19.9409 0.886647 15.8192
O 10.9554 18.8471 13.332
O 8.77844 -16.5498 13.9217
O 15.6509 1.16985 15.7809
O 10.0734 14.7852 13.2913
O 7.26734 -13.0459 14.2471
O 17.5305 5.92413 7.54537
Si 19.0634 6.4857 7.78382
Si 15.899 5.79467 7.66095
O 17.7484 3.78524 9.5977
Si 19.3783 3.70348 9.3963
Si 16.1679 3.36895 9.45498
O 19.9201 3.79941 10.9734
O 7.90674 19.4426 8.50433
O 10.9643 -15.2183 9.10503
O 15.6311 3.54523 10.9708
O 7.08331 15.2253 8.35893
O 8.20391 -12.2221 8.88968
O 16.8846 8.99832 12.1909
Si 18.467 9.42197 12.488
Si 15.2769 8.61569 12.2954
O 17.4774 6.80771 14.3703
Si 19.095 6.69908 14.1016
Si 15.9342 6.33584 14.1668
O 19.5882 6.67372 15.6969
O 5.26697 19.7594 13.3697
O 13.4289 -13.1509 13.8979
O 15.3756 5.90967 15.6205
O 5.47248 15.5998 13.5626
O 10.8586 -9.9246 14.1706
O 15.9864 11.5464 7.70123
Si 17.5659 12.0412 7.78357
Si 14.5681 10.7324 7.4615
O 16.8147 8.97043 9.54085
Si 18.4061 9.30275 9.31084
Si 15.3159 8.36699 9.26373
O 18.9359 9.48133 10.8841
O 2.13617 19.6256 8.61953
O 15.1772 -11.2535 9.00356
O 14.7387 8.39035 10.7843
O 2.12367 15.4471 8.39834
O 11.6711 -9.03127 8.77112
O 15.4489 13.8945 12.163
Si 16.7333 14.8032 12.5484
Si 15.0234 12.5043 11.3925
O 16.4095 11.5169 14.4768
Si 17.8593 12.1786 14.1069
Si 14.9199 11.1154 13.9368
O 18.1934 12.2724 15.7432
O -0.44401 19.3004 13.5004
O 16.9938 -8.59376 13.7411
O 14.2332 10.7528 15.3706
O 0.704653 15.2958 13.7217
O 13.6418 -6.14703 13.994
O 13.3396 16.1998 7.26744
Si 14.6498 16.9966 7.82213
Si 12.9337 14.7312 6.71876
O 15.0973 13.5126 9.82432
Si 16.3209 14.5847 9.38315
Si 13.4334 13.0593 9.01837
O 16.9632 14.99 10.8873
O -3.50918 18.4963 8.74843
O 18.1412 -6.27568 8.84563
O 13.6047 12.39 10.5332
O -2.60224 14.4326 8.52578
O 14.174 -5.05279 8.59971
O 11.2853 16.6135 12.0549
Si 12.1108 17.9599 12.4978
Si 11.0732 15.0007 12.0521
O 13.7866 15.1556 14.5714
Si 14.6005 16.5712 14.1606
Si 13.3049 13.7173 13.5361
O 14.9646 17.2027 15.6683
O -5.90708 17.5728 13.6388
O 19.1917 -3.25058 13.5775
O 12.5377 13.6553 14.9963
O -3.89249 13.937 13.8712
O 15.3124 -1.77062 13.8242
O 8.73783 17.1707 7.77066
Si 9.25431 18.7513 7.7648
Si 8.41384 15.5661 7.51852
O 11.2119 16.6204 9.1849
Si 12.0152 18.0644 9.31713
Si 10.9469 15 9.06534
O 12.2413 18.4778 10.9147
O -8.73272 16.1084 8.85274
O 19.6694 -0.678048 8.69446
O 10.645 14.553 10.5763
O -6.94538 12.3536 8.6594
O 15.5073 -0.494469 8.45903
O 6.21466 17.6425 12.2304
Si 6.60409 19.211 12.5103
Si 6.4423 16.0331 12.3583
O 9.49259 17.1525 14.3002
Si 9.44902 18.7769 14.078
Si 8.93932 15.6479 14.0368
O 9.41673 19.2499 15.6735
O -10.8089 14.6385 13.7226
O 19.9306 2.46263 13.4221
O 8.34318 15.1682 15.4474
O -8.16912 11.7239 14.009
O 15.7903 2.88571 13.6522
O 3.30416 17.6616 7.53892
Si 3.57915 19.2604 7.83208
Si 3.45131 16.0393 7.70864
O 6.52699 17.4964 9.43446
Si 6.47336 19.1391 9.33377
Si 6.03979 15.9287 9.36583
O 6.59211 19.6804 10.9073
O -13.2679 12.608 8.85313
O 19.7084 5.13224 8.56143
O 6.12966 15.4289 10.8979
O -10.8153 9.4082 8.62912
O 15.5578 4.38986 8.37019
O 1.05399 17.45 12.3666
Si 0.979192 19.0695 12.638
Si 1.60001 15.9141 12.5353
O 4.20059 17.7354 14.4727
Si 3.85084 19.3158 14.1625
Si 4.11721 16.1172 14.2509
O 3.69785 19.813 15.749
O -14.9883 10.7743 13.6676
O 19.2419 8.1635 13.2865
O 3.76109 15.5068 15.7019
O -11.836 8.56358 13.9631
O 15.0819 7.44167 13.3746
O -1.95197 16.86 7.64945
Si -2.02299 18.4776 7.9577
Si -1.44016 15.3195 7.85307
O 1.17334 17.441 9.7244
Si 0.816365 19.0252 9.47197
Si 1.06163 15.8142 9.55197
O 0.826324 19.5654 11.0513
O -16.9418 8.24585 8.72969
O 18.412 10.7974 8.53767
O 1.40078 15.2963 11.0505
O -14.0139 5.68228 8.45708
O 14.5597 9.28606 8.17226
O -4.02759 16.1173 12.5038
Si -4.47386 17.6754 12.7708
Si -3.15451 14.7432 12.688
O -1.02275 17.1085 14.6065
Si -1.73162 18.5625 14.2922
Si -0.737332 15.5113 14.3998
O -2.01093 19.0297 15.87
O -18.2689 6.11999 13.5404
O 17.7035 13.6837 13.3601
O -0.950491 14.861 15.8668
O -14.7361 4.8039 13.8368
O 15.6024 11.223 12.3202
O -6.83799 14.8665 7.76962
Si -7.27466 16.4249 8.07718
Si -6.00261 13.4796 7.99882
O -3.95051 16.1429 9.88171
Si -4.6475 17.6061 9.60743
Si -3.69299 14.5325 9.70735
O -4.75088 18.13 11.189
O -19.6554 3.26496 8.65056
O 15.7569 15.9952 8.6211
O -3.21822 14.1029 11.1984
O -16.3431 1.32718 8.15425
O 13.9825 13.7406 7.57236
O -8.45312 13.8868 12.4955
Si -9.46161 15.1298 12.8572
Si -7.53866 12.5669 12.7915
O -6.05237 15.2543 14.7248
Si -7.00723 16.5659 14.4118
Si -5.34928 13.7824 14.535
O -7.37558 16.9661 15.9897
O -20.0023 0.691242 13.4573
O 13.5595 17.5821 13.2833
O -5.39437 13.1366 16.0226
O -16.4765 0.872899 13.419
O 12.4368 14.2437 12.3262
O -11.0421 11.9469 7.75657
Si -11.9235 13.285 8.11442
Si -10.0399 10.6913 8.05203
O -8.70354 13.6863 10.0032
Si -9.65961 14.9935 9.69949
Si -8.05182 12.1884 9.82161
O -9.87273 15.4935 11.2791
O -20.653 -2.26672 8.71461
O 10.7404 18.877 8.5525
O -7.51041 11.8757 11.3218
O -17.3567 -2.83196 7.79753
O 9.63813 14.7588 8.17164
O -12.4249 10.6954 12.5079
Si -13.7833 11.5728 12.8219
Si -11.3429 9.49127 12.7399
O -10.7704 12.1458 14.7465
Si -11.7371 13.4459 14.4453
Si -9.52738 11.0855 14.5696
O -12.1569 13.786 16.0256
O -19.7713 -5.01974 13.5065
O 8.11553 19.3546 13.2333
O -9.38423 10.4731 16.0686
O -15.6567 -4.18067 13.3546
O 7.92372 15.664 12.7982
O -14.4515 8.30416 7.75171
Si -15.7807 9.22836 8.03349
Si -13.3858 7.07298 7.95587
O -13.0168 10.0449 9.98736
Si -13.9942 11.3398 9.67263
Si -11.8293 8.9271 9.78845
O -14.2767 11.8132 11.2472
O -18.9984 -7.6954 8.73105
O 5.01365 19.5875 8.63847
O -11.198 8.79449 11.2804
O -15.2044 -6.32438 8.83558
O 4.56596 15.6543 8.80107
O -15.7477 6.67501 12.3441
Si -17.2751 7.18219 12.7041
Si -14.4265 5.73721 12.5563
O -14.4726 8.31315 14.6422
Si -15.6656 9.41051 14.3639
Si -13.0073 7.59527 14.4659
O -16.1368 9.64623 15.9463
O -18.1332 -10.4674 13.4226
O 2.41137 19.5798 13.3442
O -12.7485 6.97773 15.9482
O -14.2172 -8.98992 13.3008
O 3.10946 15.7852 13.0419
O -17.2212 3.83856 7.60706
Si -18.719 4.44611 7.9242
Si -15.9304 2.82983 7.75069
O -16.2632 5.74226 9.85398
Si -17.4249 6.87721 9.56225
Si -14.8414 4.95405 9.63881
O -17.8041 7.3033 11.1275
O -17.0335 -13.0299 8.70864
O -0.705391 19.1226 8.77235
O -14.1674 5.0204 11.1199
O -13.2671 -11.0601 8.39287
O -0.351093 15.2641 9.03833
O -18.058 2.22393 12.01
Si -19.591 2.08934 12.6016
Si -16.5137 1.72363 12.0531
O -17.2081 3.84071 14.4918
Si -18.6195 4.64683 14.2603
Si -15.6074 3.5435 14.2941
O -19.1441 4.77806 15.8349
O -15.7051 -15.6891 13.5081
O -3.18931 18.4954 13.4675
O -15.2511 2.92561 15.7578
O -13.7593 -11.8164 13.1671
O -1.65271 14.9511 13.1986
O -18.9325 -0.629822 7.66698
Si -20.5328 -0.805215 7.89052
Si -17.6365 -1.39397 7.03593
O -18.4807 0.912945 9.6692
Si -19.852 1.82452 9.47814
Si -16.9374 0.426803 9.36143
O -20.2501 2.08605 11.0709
O -13.6301 -17.7024 8.83982
O -6.14973 17.3517 8.90693
O -16.1806 0.857234 10.7303
O -12.3107 -13.8323 8.53735
O -4.95202 13.6833 9.20265
O -18.0258 -3.60204 12.3354
Si -19.6403 -3.58538 12.6533
Si -16.4491 -3.16594 12.3898
O -18.2298 -0.957669 14.8032
Si -19.8109 -0.780411 14.2737
Si -16.6415 -0.593176 13.9644
O -20.6905 -0.799594 15.7041
O -10.7671 -18.5664 13.4828
O -8.42828 16.2272 13.5911
O -16.38 -0.911654 15.5566
O -9.54396 -14.4599 13.2921
O -6.09246 12.9488 13.372
O -17.5505 -5.6046 7.66456
Si -19.0493 -6.22802 7.93554
Si -15.9465 -5.31 7.82992
O -18.3147 -3.24132 9.85741
Si -19.8987 -3.54657 9.5058
Si -16.7777 -2.82158 9.39982
O -20.2926 -3.67207 11.1232
O -8.13542 -19.3548 8.77543
O -11.065 14.4402 8.97267
O -16.0417 -3.0175 10.8377
O -7.75186 -15.2057 8.90966
O -9.05121 11.0653 9.2663
O -16.6819 -8.26267 12.4988
Si -18.1728 -8.96562 12.6745
Si -15.076 -7.88071 12.5212
O -17.3638 -6.07915 14.3187
Si -19.0028 -6.30418 14.2513
Si -15.821 -5.4994 14.2698
O -19.5021 -6.42486 15.8326
O -5.08979 -19.6371 13.5041
O -13.0651 12.8819 13.5902
O -15.3521 -5.30019 15.8088
O -4.53211 -15.441 13.3255
O -9.99581 10.074 13.4029
O -15.7983 -10.741 7.66644
Si -17.2273 -11.5507 7.9383
Si -14.2781 -10.0803 7.62509
O -16.5763 -8.58888 9.62439
Si -18.1798 -8.92932 9.50134
Si -15.1458 -7.80387 9.46548
O -18.6524 -9.09557 11.0864
O -2.44953 -19.7703 8.87598
O -15.2692 10.5689 8.90058
O -14.5855 -7.71407 10.9857
O -2.99493 -15.6436 9.10535
O -12.4095 7.57047 9.14095
O -14.8424 -13.3899 12.5841
Si -16.2268 -14.3086 12.7468
Si -14.8366 -11.9289 11.5922
O -15.8588 -11.0001 14.6207
Si -17.3237 -11.6634 14.2772
Si -14.4042 -10.4071 14.0797
O -17.775 -11.7866 15.8737
O 0.671565 -19.4531 13.621
O -16.8526 8.60215 13.4967
O -13.8321 -10.0318 15.5607
O 0.377437 -15.2886 13.405
O -13.2292 6.57131 13.2381
O -13.3438 -15.6674 7.49724
Si -14.5745 -16.5947 8.02576
Si -13.0561 -14.188 6.86582
O -14.8977 -12.9846 10.0328
Si -16.0763 -14.0994 9.58775
Si -13.3143 -12.4776 9.17764
O -16.6106 -14.4624 11.1311
O 3.21993 -18.9566 9.01516
O -18.5126 5.87056 8.77874
O -13.4655 -11.7429 10.6627
O 1.72844 -15.0798 9.26507
O -15.1009 3.50097 8.97224
O -11.1 -16.2962 12.3903
Si -11.9552 -17.6673 12.7134
Si -10.7778 -14.6926 12.2747
O -13.6964 -14.8617 14.7024
Si -14.4319 -16.3304 14.3751
Si -13.3118 -13.46 13.5379
O -14.8749 -16.8705 15.8881
O 6.2348 -17.9253 13.7566
O -19.5756 3.54637 13.4339
O -12.7323 -13.1536 15.0786
O 4.99199 -13.9515 13.5446
O -15.5392 2.69319 12.914
O -8.76982 -17.134 7.61133
Si -9.39028 -18.6185 7.94313
Si -8.7606 -15.5072 7.69535
O -11.9497 -16.2212 9.65931
Si -12.1269 -17.8522 9.56157
Si -11.2306 -14.8068 9.29313
O -12.2186 -18.2448 11.1744
O 8.55365 -16.7897 9.15633
O -20.7346 0.635103 8.70572
O -10.5654 -14.3762 10.7
O 6.15752 -13.4458 9.43935
O -16.9852 -1.09981 8.72058
O -5.99632 -17.467 12.4938
Si -6.45641 -19.0356 12.7314
Si -5.90475 -15.8276 12.5749
O -9.10822 -16.8474 14.1811
Si -9.27545 -18.4902 14.2501
Si -8.49051 -15.3205 14.1738
O -9.45924 -19.0309 15.8144
O 11.2255 -15.0104 13.8411
O -20.131 -2.17438 13.4026
O -8.37702 -14.9202 15.7325
O 9.09941 -11.5376 13.6426
O -16.1358 -1.70283 12.9514
O -3.64528 -17.7017 7.74111
Si -3.82193 -19.3098 8.02662
Si -3.96366 -16.1047 7.90682
O -6.80533 -17.4894 9.85841
Si -6.68074 -19.1064 9.57201
Si -6.48477 -15.9072 9.60744
O -6.62594 -19.5869 11.1677
O 13.1361 -13.3089 9.16462
O -19.9123 -5.01798 8.70766
O -6.01927 -15.3313 11.04
O 10.181 -10.9407 9.51464
O -15.8387 -3.88161 8.56796
O -0.635644 -17.5724 12.5399
Si -0.795148 -19.1851 12.8382
Si -0.910897 -15.9687 12.7214
O -3.84003 -17.6278 14.5321
Si -3.68659 -19.2548 14.3466
Si -3.48566 -16.0313 14.4007
O -3.77112 -19.8004 15.9199
O 15.2878 -10.9249 13.7213
O -19.0572 -7.78331 13.4659
O -3.67634 -15.5029 15.9201
O 12.6041 -8.24303 13.4347
O -14.9341 -6.5659 13.4439
O 1.55961 -17.2173 7.87471
Si 1.77949 -18.8211 8.15873
Si 0.890422 -15.7315 8.05537
O -1.55781 -17.7059 9.99925
Si -1.07077 -19.2487 9.68338
Si -1.60428 -16.0868 9.77759
O -0.885433 -19.7412 11.2674
O 16.727 -8.81133 9.02038
O -18.1598 -10.4135 8.73245
O -1.28171 -15.4568 11.2316
O 13.2433 -7.29864 9.32746
O -14.2669 -8.68286 8.43161
O 4.55194 -16.4152 12.6633
Si 4.74559 -18.0224 12.9721
Si 3.90908 -14.9241 12.8609
O 1.46156 -17.2145 14.7338
Si 1.94394 -18.7654 14.4805
Si 1.45347 -15.5834 14.5667
O 1.96543 -19.3068 16.0595
O 18.1676 -5.94675 13.5675
O -17.1818 -13.1786 13.5577
O 1.06574 -15.0932 16.0631
O 14.8709 -4.06213 13.2579
O -15.2653 -10.6401 12.587
O 6.51929 -15.5454 8.00133
Si 7.12976 -17.0391 8.29681
Si 5.51825 -14.2688 8.21454
O 3.60512 -16.7669 10.1496
Si 4.45508 -18.1405 9.81879
Si 3.18269 -15.2026 9.9372
O 4.76886 -18.5812 11.3989
O 18.9841 -3.50425 8.85832
O -15.6258 -15.5477 8.8334
O 3.3742 -14.5157 11.3893
O 15.2055 -2.9334 9.14316
O -13.9684 -13.0707 7.72478
O 9.192 -14.045 12.7336
Si 9.81238 -15.5252 13.0807
Si 8.25119 -12.7437 13.0123
O 6.45798 -15.5643 14.8974
Si 7.30113 -16.9483 14.6187
Si 6.06945 -13.979 14.7409
O 7.44698 -17.4672 16.2004
O 19.6308 -0.396695 13.4234
O -13.371 -17.3502 13.5621
O 5.54741 -13.5986 16.2269
O 15.9504 0.562573 13.0941
O -12.0509 -13.7606 12.5855
O 10.5907 -13.0309 7.98052
Si 11.8579 -14.0162 8.3305
Si 9.6054 -11.7641 8.26016
O 8.52 -14.461 10.2703
Si 9.57206 -15.6908 9.92297
Si 7.59075 -13.1169 10.0811
O 9.97229 -16.0586 11.5048
O 19.7619 2.22025 8.70131
O -10.8833 -18.5967 8.71448
O 7.57788 -12.4648 11.5649
O 15.8739 1.88886 8.92387
O -10.2007 -14.9613 8.08328
O 12.7801 -10.8781 12.7524
Si 14.0677 -11.8555 13.0318
Si 11.8375 -9.55551 12.9495
O 11.1999 -12.4572 14.9997
Si 12.0814 -13.816 14.6601
Si 10.1466 -11.2064 14.8222
O 12.3204 -14.3131 16.2391
O 19.6323 5.32471 13.2988
O -7.92234 -19.1671 13.5311
O 9.53516 -11.0189 16.311
O 15.8576 5.30635 12.9354
O -7.05432 -15.1507 13.4737
O 14.1769 -9.27916 7.87988
Si 15.6871 -9.85419 8.20586
Si 12.9092 -8.2698 8.0877
O 12.8309 -10.8272 10.1583
Si 13.9383 -12.0059 9.86462
Si 11.4034 -10.0373 9.99802
O 14.3912 -12.2865 11.4495
O 19.1198 7.97316 8.56767
O -5.30025 -19.5939 8.75931
O 11.1883 -9.4056 11.4732
O 15.2649 6.86775 8.68281
O -5.44319 -15.7575 8.39351
O 15.7374 -6.56735 12.597
Si 17.2409 -7.16801 12.8761
Si 14.4807 -5.52928 12.7685
O 14.7883 -8.38819 14.8783
Si 15.8776 -9.57821 14.5398
Si 13.3846 -7.5778 14.6754
O 16.2182 -10.0149 16.1168
O 18.5805 10.923 13.2453
O -2.20182 -19.6037 13.6498
O 12.6694 -7.59877 16.1245
O 14.5267 9.74974 13.1389
O -2.01728 -15.6889 13.8574
O 16.6512 -4.61999 7.72281
Si 18.2577 -4.78941 8.0496
Si 15.1602 -3.98147 7.92257
O 15.7688 -6.49156 9.98571
Si 17.1511 -7.33491 9.70785
Si 14.185 -6.10637 9.81504
O 17.6655 -7.48591 11.2911
O 17.3555 13.5349 8.55194
O 0.385649 -19.4209 8.87087
O 13.8126 -5.55949 11.2935
O 13.4813 11.6361 8.23266
O -0.626516 -15.7074 8.55664
O 17.4458 -1.62403 12.4323
Si 19.0533 -1.80825 12.7177
Si 15.9608 -0.953257 12.6012
O 17.0082 -3.63105 14.7146
Si 18.3752 -4.48989 14.3819
Si 15.442 -3.21853 14.504
O 18.8158 -4.81186 15.9617
O 15.9892 16.057 13.3709
O 3.47472 -18.7532 13.791
O 14.7521 -3.4206 15.9506
O 14.2855 12.533 13.0532
O 2.82897 -14.9469 14.0555
O 17.7797 0.56682 7.60017
Si 19.3846 0.787649 7.90411
Si 16.1699 0.800705 7.77753
O 17.4424 -1.50916 9.80824
Si 18.9981 -1.96908 9.54813
Si 15.8125 -1.54264 9.64004
O 19.5396 -1.98954 11.1289
O 13.5406 17.977 8.62848
O 5.91145 -17.9546 9.00245
O 15.3171 -1.1429 11.1288
O 12.2206 14.2661 8.35223
O 4.0401 -14.6218 8.70489
O 17.8336 3.55987 21.7728
Si 19.4283 3.82497 22.0578
Si 16.2311 3.84189 21.9281
O 17.9014 1.53235 24.0456
Si 19.4479 1.06516 23.7198
Si 16.2831 1.52365 23.8272
O 19.9409 0.886653 25.3066
O 10.9554 18.8471 22.8194
O 8.77844 -16.5498 23.4091
O 15.6509 1.16987 25.2684
O 10.0734 14.7852 22.7787
O 7.26734 -13.0459 23.7345
O 17.5305 5.92412 17.0328
Si 19.0634 6.4857 17.2712
Si 15.899 5.79467 17.1484
O 17.7484 3.78524 19.0851
Si 19.3783 3.70348 18.8837
Si 16.1679 3.36894 18.9424
O 19.9201 3.7994 20.4608
O 7.90675 19.4426 17.9918
O 10.9643 -15.2183 18.5925
O 15.6311 3.54521 20.4582
O 7.08332 15.2253 17.8464
O 8.20391 -12.2221 18.3771
O 16.8846 8.99831 21.6783
Si 18.467 9.42197 21.9755
Si 15.2769 8.61569 21.7828
O 17.4774 6.80771 23.8578
Si 19.095 6.69908 23.589
Si 15.9342 6.33583 23.6542
O 19.5882 6.67372 25.1843
O 5.26697 19.7594 22.8572
O 13.4289 -13.1509 23.3854
O 15.3757 5.90965 25.108
O 5.47248 15.5998 23.0501
O 10.8586 -9.9246 23.658
O 15.9864 11.5464 17.1886
Si 17.5659 12.0412 17.271
Si 14.5681 10.7324 16.9489