2688
 Atoms. Timestep: 43957
O 0.261373 -8.56428 -3.28611
Si 0.310886 -10.186 -2.94879
Si 0.211578 -6.9194 -3.07691
O 0.260789 -8.56432 -5.83512
Si 0.310772 -10.186 -6.17243
Si 0.211327 -6.91942 -6.0443
O 0.327275 -10.7248 -4.56061
O 0.193452 -6.32521 -4.56061
O 0.198331 -6.49108 -8.37468
O 0.198539 -6.49107 -0.746534
O 1.30907 6.66913 -2.31637
O 1.3095 6.66903 -6.80498
O 1.68143 8.55705 -8.75905
Si 1.98822 10.1237 -8.37251
Si 1.3705 6.97806 -8.47054
O 1.67989 8.55732 -0.362307
Si 1.98796 10.1238 -0.748858
Si 1.36965 6.97818 -0.650802
O 2.09352 10.6602 0.870056
O 1.25834 6.41014 0.870086
O 3.22114 10.1745 -7.25922
O 0.865801 10.6376 -1.86189
O 3.22108 10.1744 -1.86191
O 0.865816 10.6375 -7.25972
O 3.95167 -7.60284 -3.28597
Si 4.6993 -9.04281 -2.94873
Si 3.19222 -6.14289 -3.07683
O 3.95125 -7.60309 -5.83511
Si 4.69922 -9.04289 -6.17236
Si 3.19199 -6.14305 -6.04425
O 4.94776 -9.52117 -4.56054
O 2.9179 -5.61554 -4.56054
O 2.9943 -5.76259 -8.37457
O 2.99449 -5.76251 -0.746491
O -1.71375 6.57745 -2.31654
O -1.71332 6.57748 -6.80513
O -2.1982 8.43945 -8.75924
Si -2.60097 9.98426 -8.37268
Si -1.79251 6.88211 -8.47072
O -2.19971 8.43918 -0.362432
Si -2.60124 9.98429 -0.749037
Si -1.79331 6.88204 -0.650969
O -2.73886 10.5133 0.869911
O -1.64683 6.32194 0.869882
O -1.51214 10.5652 -7.25954
O -3.8351 9.96023 -1.8622
O -1.51216 10.5651 -1.86194
O -3.835 9.96008 -7.25974
O 6.85772 -5.13499 -3.286
Si 8.15612 -6.10787 -2.94867
Si 5.54005 -4.14916 -3.07676
O 6.85738 -5.13551 -5.83493
Si 8.15607 -6.108 -6.17228
Si 5.5399 -4.14943 -6.04417
O 8.58766 -6.43092 -4.56047
O 5.06399 -3.79313 -4.56047
O 5.19721 -3.89299 -8.3746
O 5.19725 -3.89272 -0.74632
O -4.39697 5.18248 -2.31662
O -4.39659 5.18264 -6.80526
O -5.641 6.65045 -8.75932
Si -6.6748 7.86696 -8.3728
Si -4.60033 5.42288 -8.47082
O -5.64209 6.64972 -0.36256
Si -6.67504 7.86693 -0.749154
Si -4.60093 5.4226 -0.651078
O -7.02884 8.28364 0.869801
O -4.22623 4.98125 0.869773
O -5.94612 8.86307 -7.25974
O -7.77594 7.30942 -1.86238
O -5.94615 8.86307 -1.86203
O -7.77579 7.30932 -7.25973
O 8.40551 -1.65096 -3.28582
Si 9.99753 -1.96399 -2.94861
Si 6.79061 -1.33423 -3.07668
O 8.40543 -1.65173 -5.83492
Si 9.99756 -1.96416 -6.17213
Si 6.79061 -1.33459 -6.04407
O 10.5265 -2.06778 -4.56036
O 6.20726 -1.22 -4.56039
O 6.3696 -1.25208 -8.37435
O 6.36952 -1.2517 -0.746406
O -6.20882 2.761 -2.31665
O -6.20856 2.76126 -6.80525
O -7.9676 3.54134 -8.75932
Si -9.4259 4.19104 -8.37285
Si -6.49637 2.88909 -8.47083
O -7.96803 3.54055 -0.362598
Si -9.426 4.19094 -0.749131
Si -6.49663 2.88871 -0.651079
O -9.92545 4.41326 0.86977
O -5.96725 2.6544 0.869784
O -9.20123 5.40478 -7.26004
O -10.1763 3.21139 -1.86249
O -9.20127 5.40476 -1.86184
O -10.1762 3.2114 -7.25958
O 8.28846 2.15988 -3.28584
Si 9.85864 2.56842 -2.94854
Si 6.69608 1.74458 -3.07665
O 8.28871 2.15924 -5.83475
Si 9.85876 2.56831 -6.17205
Si 6.69626 1.74425 -6.04401
O 10.3804 2.70419 -4.56028
O 6.12088 1.59452 -4.56035
O 6.28134 1.63611 -8.37434
O 6.28119 1.6366 -0.746302
O -6.79078 -0.206782 -2.31661
O -6.79071 -0.206506 -6.80512
O -8.71363 -0.265441 -8.75923
Si -10.3094 -0.314023 -8.37278
Si -7.10502 -0.216134 -8.47075
O -8.7137 -0.265279 -0.362485
Si -10.3094 -0.313989 -0.74896
Si -7.1051 -0.216382 -0.650981
O -10.8559 -0.330745 0.869895
O -6.52644 -0.198613 0.869866
O -10.6339 0.876829 -7.25989
O -10.5605 -1.52232 -1.86201
O -10.6341 0.876801 -1.8619
O -10.5605 -1.52228 -7.25966
O 6.53117 5.54231 -3.28585
Si 7.76817 6.5922 -2.94859
Si 5.27604 4.47797 -3.07671
O 6.53138 5.54219 -5.83489
Si 7.76827 6.59223 -6.17212
Si 5.27634 4.47775 -6.04409
O 8.17929 6.94092 -4.56034
O 4.8228 4.09335 -4.56042
O 4.94944 4.20033 -8.37443
O 4.94905 4.20086 -0.746346
O -6.02814 -3.13345 -2.31647
O -6.02824 -3.13321 -6.80502
O -7.73576 -4.01986 -8.75908
Si -9.15213 -4.75654 -8.37261
Si -6.30745 -3.27826 -8.47063
O -7.73573 -4.02019 -0.362376
Si -9.15222 -4.75663 -0.74882
Si -6.30748 -3.27854 -0.650876
O -9.63731 -5.00872 0.870055
O -5.79371 -3.01164 0.869968
O -9.96088 -3.8244 -7.25949
O -8.85426 -5.95438 -1.86174
O -9.96097 -3.82447 -1.86193
O -8.85423 -5.95431 -7.2597
O 3.48003 7.82842 -3.28606
Si 4.13905 9.31103 -2.9488
Si 2.81099 6.3249 -3.07689
O 3.48018 7.82834 -5.8351
Si 4.13906 9.311 -6.17239
Si 2.81132 6.32475 -6.04427
O 4.35815 9.80351 -4.5606
O 2.56949 5.78169 -4.56058
O 2.63733 5.93328 -8.37468
O 2.63658 5.93345 -0.746511
O -4.07193 -5.43993 -2.31639
O -4.07211 -5.43977 -6.80498
O -5.22639 -6.97929 -8.75906
Si -6.18258 -8.25772 -8.37254
Si -4.26093 -5.69173 -8.47056
O -5.22573 -6.97977 -0.362305
Si -6.18248 -8.25779 -0.748816
Si -4.26072 -5.69188 -0.650811
O -6.51026 -8.69537 0.87007
O -3.91362 -5.22861 0.870067
O -7.31547 -7.7686 -7.25927
O -5.39438 -9.20772 -1.86172
O -7.31542 -7.76858 -1.862
O -5.39437 -9.20766 -7.25974
O -0.26088 8.5641 -3.28627
Si -0.310504 10.1858 -2.94895
Si -0.211283 6.91921 -3.07707
O -0.260507 8.56409 -5.83528
Si -0.310443 10.1858 -6.17259
Si -0.21092 6.91919 -6.04445
O -0.326925 10.7246 -4.56078
O -0.193106 6.325 -4.56076
O -0.197705 6.49089 -8.37484
O -0.198464 6.49091 -0.746682
O -1.30883 -6.6693 -2.31633
O -1.30904 -6.66926 -6.80495
O -1.68028 -8.55741 -8.75902
Si -1.98775 -10.124 -8.37248
Si -1.36981 -6.97833 -8.47051
O -1.68021 -8.55736 -0.36227
Si -1.98772 -10.1239 -0.748821
Si -1.36961 -6.9783 -0.650767
O -2.09317 -10.6604 0.870092
O -1.25799 -6.41033 0.870122
O -3.22077 -10.1747 -7.25931
O -0.865443 -10.6377 -1.86174
O -3.22075 -10.1747 -1.86199
O -0.865477 -10.6378 -7.25956
O -3.95128 7.60276 -3.28634
Si -4.69896 9.04271 -2.9491
Si -3.19194 6.14276 -3.0772
O -3.95092 7.60288 -5.83549
Si -4.69887 9.04269 -6.17274
Si -3.19159 6.14287 -6.0446
O -4.94742 9.52102 -4.56093
O -2.91756 5.61539 -4.56089
O -2.99373 5.76244 -8.37493
O -2.99436 5.76227 -0.746857
O 1.71399 -6.5776 -2.31628
O 1.71377 -6.57768 -6.80487
O 2.19911 -8.43954 -8.75898
Si 2.60143 -9.98446 -8.3724
Si 1.79315 -6.88228 -8.47045
O 2.19938 -8.43949 -0.362175
Si 2.60148 -9.98446 -0.748758
Si 1.79337 -6.88224 -0.650704
O 2.73923 -10.5135 0.870171
O 1.64721 -6.32212 0.87017
O 1.51249 -10.5653 -7.25937
O 3.83541 -9.9603 -1.86182
O 1.51252 -10.5654 -1.86177
O 3.83538 -9.96033 -7.25936
O -6.85741 5.13487 -3.28652
Si -8.15582 6.10775 -2.94919
Si -5.53978 4.14902 -3.07728
O -6.85707 5.1352 -5.83546
Si -8.15569 6.10777 -6.1728
Si -5.53949 4.14925 -6.04465
O -8.5873 6.43076 -4.56101
O -5.06364 3.79297 -4.56095
O -5.19674 3.89287 -8.37513
O -5.19708 3.89254 -0.746805
O 4.3972 -5.18262 -2.31619
O 4.39703 -5.18282 -6.80482
O 5.64177 -6.65038 -8.75889
Si 6.67526 -7.86715 -8.37234
Si 4.6009 -5.42301 -8.47037
O 5.64214 -6.65 -0.362135
Si 6.67529 -7.86707 -0.748692
Si 4.60106 -5.42279 -0.650633
O 7.02918 -8.28382 0.870226
O 4.22656 -4.98144 0.870261
O 5.94647 -8.86326 -7.25936
O 7.77621 -7.30953 -1.86187
O 5.94647 -8.8632 -1.86163
O 7.77622 -7.30957 -7.25921
O -8.40521 1.65084 -3.2864
Si -9.99723 1.96383 -2.94919
Si -6.79032 1.33408 -3.07723
O -8.40496 1.65161 -5.83549
Si -9.99709 1.96397 -6.17272
Si -6.79015 1.33439 -6.04461
O -10.5261 2.06758 -4.56098
O -6.20688 1.21982 -4.5609
O -6.36922 1.2519 -8.37492
O -6.36922 1.25158 -0.746957
O 6.20907 -2.76115 -2.31612
O 6.20902 -2.76145 -6.80471
O 7.96811 -3.54131 -8.7588
Si 9.42631 -4.1912 -8.37228
Si 6.49682 -2.88923 -8.47028
O 7.96816 -3.54088 -0.362066
Si 9.42622 -4.1911 -0.748555
Si 6.49681 -2.88887 -0.650536
O 9.92577 -4.41342 0.870309
O 5.96757 -2.65455 0.870369
O 9.20159 -5.40496 -7.25951
O 10.1766 -3.21153 -1.86188
O 9.20156 -5.40489 -1.86131
O 10.1767 -3.2116 -7.25898
O -8.28814 -2.16017 -3.28632
Si -9.85834 -2.56863 -2.94902
Si -6.69579 -1.74474 -3.07712
O -8.28833 -2.15934 -5.83525
Si -9.85837 -2.56847 -6.17252
Si -6.69585 -1.74444 -6.04448
O -10.38 -2.70438 -4.56077
O -6.12053 -1.59469 -4.5608
O -6.28075 -1.63637 -8.37479
O -6.28088 -1.63665 -0.746784
O 6.79105 0.206639 -2.31609
O 6.79118 0.2063 -6.8046
O 8.71415 0.264723 -8.75871
Si 10.3099 0.313777 -8.37222
Si 7.10555 0.215847 -8.47022
O 8.714 0.265246 -0.361976
Si 10.3098 0.313852 -0.748409
Si 7.10539 0.2163 -0.650457
O 10.8563 0.33059 0.870412
O 6.52685 0.198502 0.870435
O 10.6344 -0.877014 -7.25927
O 10.5608 1.52214 -1.86151
O 10.6344 -0.876964 -1.86132
O 10.5609 1.52212 -7.25918
O -6.53075 -5.54258 -3.28618
Si -7.7678 -6.5924 -2.94891
Si -5.27572 -4.47812 -3.07702
O -6.53098 -5.54231 -5.8352
Si -7.76786 -6.59235 -6.17245
Si -5.27589 -4.47792 -6.0444
O -8.17892 -6.94107 -4.56068
O -4.82241 -4.09351 -4.56071
O -4.9489 -4.20069 -8.37475
O -4.9489 -4.20092 -0.746645
O 6.02842 3.13331 -2.31607
O 6.02872 3.13301 -6.80463
O 7.73634 4.01955 -8.75869
Si 9.15262 4.75636 -8.3722
Si 6.30803 3.27797 -8.47023
O 7.73573 4.02058 -0.361993
Si 9.1525 4.75651 -0.74841
Si 6.30767 3.27853 -0.650476
O 9.63772 5.00853 0.870435
O 5.79414 3.01141 0.870409
O 9.96133 3.82425 -7.25902
O 8.85466 5.95421 -1.86143
O 9.96123 3.82424 -1.86144
O 8.85466 5.95418 -7.25935
O -3.47964 -7.82865 -3.28615
Si -4.13868 -9.31125 -2.94889
Si -2.8107 -6.32509 -3.07697
O -3.47998 -7.82846 -5.8352
Si -4.13874 -9.31118 -6.17248
Si -2.81091 -6.32496 -6.04436
O -4.35779 -9.80372 -4.56069
O -2.56913 -5.7819 -4.56066
O -2.63672 -5.9336 -8.37477
O -2.63649 -5.93354 -0.746597
O 4.07219 5.43977 -2.31619
O 4.07258 5.43956 -6.80478
O 5.22732 6.97868 -8.75886
Si 6.18304 8.25746 -8.37233
Si 4.26154 5.69137 -8.47036
O 5.22555 6.9799 -0.362105
Si 6.18271 8.25762 -0.748598
Si 4.26079 5.69181 -0.650607
O 6.5106 8.69516 0.870272
O 3.91395 5.2284 0.870286
O 7.31589 7.76848 -7.25895
O 5.39474 9.20753 -1.86161
O 7.31572 7.76833 -1.86167
O 5.39469 9.20741 -7.25964
O 0.261376 -8.56428 7.57539
Si 0.310886 -10.186 7.91271
Si 0.211581 -6.9194 7.78458
O 0.260805 -8.56432 5.02638
Si 0.310777 -10.186 4.68907
Si 0.211331 -6.91942 4.8172
O 0.327275 -10.7248 6.30089
O 0.193454 -6.32521 6.30089
O 0.198337 -6.49107 2.48682
O 0.198543 -6.49107 10.115
O 1.30908 6.66912 8.54513
O 1.30951 6.66902 4.05652
O 1.68144 8.55705 2.10244
Si 1.98823 10.1237 2.48898
Si 1.3705 6.97806 2.39096
O 1.67985 8.55731 10.4992
Si 1.98796 10.1237 10.1126
Si 1.36965 6.97817 10.2107
O 2.09352 10.6602 11.7316
O 1.25835 6.41012 11.7316
O 3.22115 10.1745 3.60228
O 0.865804 10.6376 8.9996
O 3.22108 10.1744 8.99959
O 0.865822 10.6375 3.60177
O 3.95168 -7.60283 7.57553
Si 4.6993 -9.04281 7.91277
Si 3.19222 -6.14289 7.78466
O 3.95126 -7.60309 5.02639
Si 4.69922 -9.04289 4.68914
Si 3.19199 -6.14305 4.81726
O 4.94776 -9.52117 6.30096
O 2.9179 -5.61554 6.30095
O 2.99431 -5.7626 2.48692
O 2.99449 -5.76251 10.115
O -1.71374 6.57744 8.54496
O -1.71331 6.57747 4.05637
O -2.19822 8.43944 2.10226
Si -2.60097 9.98425 2.48882
Si -1.79251 6.8821 2.39078
O -2.19962 8.43919 10.4991
Si -2.60123 9.98428 10.1125
Si -1.7933 6.88203 10.2105
O -2.73886 10.5133 11.7314
O -1.64685 6.32192 11.7314
O -1.51213 10.5652 3.60195
O -3.83509 9.96021 8.99932
O -1.51216 10.5651 8.99955
O -3.835 9.96008 3.60176
O 6.85772 -5.13499 7.5755
Si 8.15612 -6.10787 7.91283
Si 5.54006 -4.14916 7.78473
O 6.85738 -5.13551 5.02657
Si 8.15607 -6.10799 4.68922
Si 5.5399 -4.14943 4.81735
O 8.58766 -6.43092 6.30103
O 5.06399 -3.79313 6.30103
O 5.19722 -3.893 2.48688
O 5.19725 -3.89271 10.1152
O -4.39696 5.18248 8.54488
O -4.39658 5.18264 4.05624
O -5.64096 6.65048 2.10218
Si -6.6748 7.86697 2.4887
Si -4.60032 5.42288 2.39069
O -5.64212 6.64971 10.4989
Si -6.67505 7.86694 10.1123
Si -4.60094 5.42261 10.2104
O -7.02885 8.28365 11.7313
O -4.22624 4.98126 11.7313
O -5.94612 8.86307 3.60177
O -7.77594 7.30942 8.99911
O -5.94615 8.86307 8.99947
O -7.77578 7.30932 3.60176
O 8.40552 -1.65096 7.57568
Si 9.99753 -1.96399 7.91289
Si 6.79062 -1.33423 7.78482
O 8.40543 -1.65174 5.02658
Si 9.99757 -1.96416 4.68937
Si 6.79062 -1.33459 4.81744
O 10.5265 -2.06778 6.30114
O 6.20726 -1.22 6.30111
O 6.3696 -1.25208 2.48715
O 6.36952 -1.2517 10.1151
O -6.20881 2.761 8.54485
O -6.20856 2.76126 4.05625
O -7.96762 3.5413 2.10218
Si -9.4259 4.19104 2.48865
Si -6.49637 2.88909 2.39067
O -7.96802 3.54056 10.4989
Si -9.426 4.19095 10.1124
Si -6.49662 2.88871 10.2104
O -9.92545 4.41326 11.7313
O -5.96725 2.6544 11.7313
O -9.20123 5.40478 3.60146
O -10.1763 3.21139 8.99901
O -9.20127 5.40476 8.99965
O -10.1762 3.2114 3.60193
O 8.28847 2.15988 7.57566
Si 9.85865 2.56842 7.91296
Si 6.69609 1.74458 7.78485
O 8.28872 2.15925 5.02675
Si 9.85877 2.56832 4.68945
Si 6.69627 1.74425 4.81749
O 10.3804 2.70419 6.30122
O 6.12089 1.59452 6.30115
O 6.28134 1.63611 2.48716
O 6.2812 1.6366 10.1152
O -6.79078 -0.206784 8.54489
O -6.7907 -0.206507 4.05638
O -8.71361 -0.265446 2.10227
Si -10.3094 -0.314024 2.48872
Si -7.10501 -0.216134 2.39075
O -8.7137 -0.265294 10.499
Si -10.3094 -0.313991 10.1125
Si -7.1051 -0.216384 10.2105
O -10.8559 -0.330745 11.7314
O -6.52644 -0.198609 11.7314
O -10.6339 0.876827 3.60161
O -10.5605 -1.52232 8.99949
O -10.6341 0.8768 8.9996
O -10.5605 -1.52228 3.60184
O 6.53117 5.54232 7.57565
Si 7.76818 6.5922 7.91291
Si 5.27604 4.47797 7.78479
O 6.53139 5.54219 5.02661
Si 7.76828 6.59222 4.68937
Si 5.27634 4.47775 4.81741
O 8.1793 6.94092 6.30116
O 4.82281 4.09335 6.30108
O 4.94946 4.20033 2.48707
O 4.94906 4.20086 10.1152
O -6.02814 -3.13345 8.54503
O -6.02824 -3.13321 4.05648
O -7.73578 -4.01982 2.10242
Si -9.15213 -4.75653 2.48889
Si -6.30745 -3.27826 2.39087
O -7.73573 -4.02019 10.4991
Si -9.15222 -4.75663 10.1127
Si -6.30747 -3.27854 10.2106
O -9.63731 -5.00872 11.7316
O -5.79371 -3.01164 11.7315
O -9.96088 -3.82441 3.60202
O -8.85426 -5.95438 8.99976
O -9.96097 -3.82447 8.99957
O -8.85422 -5.95431 3.60179
O 3.48004 7.82841 7.57544
Si 4.13905 9.31102 7.91271
Si 2.811 6.3249 7.78461
O 3.48018 7.82834 5.0264
Si 4.13907 9.311 4.68911
Si 2.81133 6.32475 4.81723
O 4.35815 9.80352 6.30091
O 2.5695 5.78169 6.30092
O 2.63734 5.93327 2.48682
O 2.63659 5.93344 10.115
O -4.07193 -5.43993 8.54511
O -4.07211 -5.43978 4.05652
O -5.22635 -6.97932 2.10244
Si -6.18258 -8.25773 2.48896
Si -4.26092 -5.69174 2.39094
O -5.22572 -6.97978 10.4992
Si -6.18248 -8.25779 10.1127
Si -4.26071 -5.69188 10.2107
O -6.51027 -8.69537 11.7316
O -3.91362 -5.22861 11.7316
O -7.31546 -7.7686 3.60223
O -5.39438 -9.20772 8.99978
O -7.31542 -7.76858 8.9995
O -5.39437 -9.20767 3.60177
O -0.260885 8.5641 7.57523
Si -0.310503 10.1858 7.91254
Si -0.211277 6.91921 7.78443
O -0.260498 8.56408 5.02622
Si -0.310437 10.1858 4.6889
Si -0.210914 6.91919 4.81705
O -0.326921 10.7246 6.30072
O -0.193101 6.325 6.30074
O -0.197699 6.49089 2.48666
O -0.198458 6.49088 10.1148
O -1.30882 -6.66931 8.54517
O -1.30904 -6.66926 4.05655
O -1.68028 -8.5574 2.10248
Si -1.98774 -10.124 2.48902
Si -1.36981 -6.97832 2.39099
O -1.68019 -8.55737 10.4992
Si -1.98772 -10.1239 10.1127
Si -1.36961 -6.97831 10.2107
O -2.09317 -10.6604 11.7316
O -1.258 -6.41033 11.7316
O -3.22077 -10.1747 3.60219
O -0.865443 -10.6377 8.99976
O -3.22075 -10.1747 8.99951
O -0.865472 -10.6378 3.60194
O -3.95129 7.60275 7.57516
Si -4.69896 9.0427 7.9124
Si -3.19194 6.14276 7.7843
O -3.95092 7.60288 5.02601
Si -4.69887 9.04269 4.68877
Si -3.19159 6.14287 4.8169
O -4.94741 9.52101 6.30057
O -2.91756 5.61538 6.30061
O -2.99372 5.76243 2.48657
O -2.99436 5.76229 10.1146
O 1.71399 -6.5776 8.54522
O 1.71377 -6.57768 4.05663
O 2.19909 -8.43955 2.10252
Si 2.60143 -9.98446 2.4891
Si 1.79315 -6.88228 2.39105
O 2.19938 -8.43949 10.4993
Si 2.60148 -9.98446 10.1127
Si 1.79337 -6.88224 10.2108
O 2.73922 -10.5135 11.7317
O 1.64721 -6.32212 11.7317
O 1.51249 -10.5654 3.60213
O 3.83541 -9.9603 8.99968
O 1.51252 -10.5654 8.99973
O 3.83538 -9.96033 3.60214
O -6.85741 5.13488 7.57498
Si -8.15581 6.10775 7.91231
Si -5.53977 4.14902 7.78422
O -6.85706 5.13519 5.02604
Si -8.15568 6.10777 4.6887
Si -5.53948 4.14925 4.81685
O -8.5873 6.43076 6.30049
O -5.06364 3.79297 6.30056
O -5.19675 3.89287 2.48637
O -5.19707 3.89254 10.1147
O 4.3972 -5.18261 8.54531
O 4.39703 -5.18282 4.05668
O 5.64178 -6.65038 2.10261
Si 6.67527 -7.86716 2.48916
Si 4.60091 -5.42301 2.39113
O 5.64216 -6.64998 10.4994
Si 6.67529 -7.86707 10.1128
Si 4.60106 -5.42279 10.2109
O 7.02918 -8.28382 11.7317
O 4.22655 -4.98144 11.7318
O 5.94648 -8.86326 3.60214
O 7.77621 -7.30953 8.99963
O 5.94647 -8.8632 8.99987
O 7.77623 -7.30958 3.60229
O -8.4052 1.65084 7.5751
Si -9.99723 1.96383 7.91231
Si -6.79031 1.33408 7.78427
O -8.40495 1.65162 5.02601
Si -9.99709 1.96397 4.68878
Si -6.79015 1.33439 4.81689
O -10.5261 2.06758 6.30053
O -6.20687 1.21982 6.3006
O -6.36921 1.2519 2.48658
O -6.36922 1.25158 10.1145
O 6.20907 -2.76115 8.54538
O 6.20903 -2.76145 4.05679
O 7.96812 -3.54129 2.1027
Si 9.42632 -4.1912 2.48922
Si 6.49683 -2.88923 2.39122
O 7.96815 -3.54089 10.4994
Si 9.42622 -4.1911 10.1129
Si 6.49681 -2.88887 10.211
O 9.92577 -4.41342 11.7318
O 5.96757 -2.65454 11.7319
O 9.2016 -5.40496 3.60199
O 10.1766 -3.21153 8.99962
O 9.20156 -5.40489 9.00019
O 10.1767 -3.2116 3.60252
O -8.28813 -2.16017 7.57518
Si -9.85834 -2.56863 7.91248
Si -6.69579 -1.74475 7.78438
O -8.28833 -2.15935 5.02625
Si -9.85837 -2.56847 4.68898
Si -6.69585 -1.74444 4.81702
O -10.38 -2.70437 6.30073
O -6.12053 -1.59469 6.3007
O -6.28074 -1.63637 2.48671
O -6.28087 -1.63665 10.1147
O 6.79106 0.20664 8.54541
O 6.79119 0.206301 4.0569
O 8.71415 0.264716 2.10279
Si 10.3099 0.313777 2.48928
Si 7.10555 0.215847 2.39127
O 8.714 0.265249 10.4995
Si 10.3098 0.313854 10.1131
Si 7.10539 0.216301 10.211
O 10.8563 0.330591 11.7319
O 6.52685 0.198503 11.7319
O 10.6344 -0.877013 3.60223
O 10.5608 1.52214 8.99999
O 10.6344 -0.876963 9.00018
O 10.5609 1.52212 3.60232
O -6.53074 -5.54258 7.57532
Si -7.7678 -6.5924 7.91259
Si -5.27571 -4.47812 7.78448
O -6.53097 -5.54231 5.0263
Si -7.76785 -6.59234 4.68905
Si -5.27588 -4.47792 4.8171
O -8.17891 -6.94106 6.30082
O -4.82241 -4.09351 6.30079
O -4.94891 -4.2007 2.48674
O -4.94889 -4.20093 10.1149
O 6.02843 3.13331 8.54543
O 6.02872 3.13301 4.05687
O 7.73636 4.01954 2.10281
Si 9.15263 4.75636 2.4893
Si 6.30804 3.27797 2.39127
O 7.73575 4.02057 10.4995
Si 9.15251 4.75651 10.1131
Si 6.30768 3.27853 10.211
O 9.63772 5.00853 11.7319
O 5.79415 3.01142 11.7319
O 9.96134 3.82425 3.60248
O 8.85467 5.95421 9.00007
O 9.96124 3.82424 9.00006
O 8.85467 5.95418 3.60215
O -3.47964 -7.82865 7.57535
Si -4.13868 -9.31125 7.91262
Si -2.81069 -6.32509 7.78453
O -3.47999 -7.82846 5.0263
Si -4.13873 -9.31118 4.68902
Si -2.81091 -6.32496 4.81714
O -4.35778 -9.80372 6.30081
O -2.56912 -5.7819 6.30084
O -2.63672 -5.93358 2.48673
O -2.63649 -5.93355 10.1149
O 4.07219 5.43977 8.54531
O 4.07259 5.43956 4.05672
O 5.22731 6.97869 2.10264
Si 6.18304 8.25747 2.48917
Si 4.26155 5.69137 2.39114
O 5.22557 6.9799 10.4994
Si 6.18273 8.25762 10.1129
Si 4.2608 5.69181 10.2109
O 6.5106 8.69517 11.7318
O 3.91395 5.22841 11.7318
O 7.3159 7.76848 3.60255
O 5.39475 9.20754 8.99989
O 7.31573 7.76833 8.99983
O 5.3947 9.20742 3.60187
O 0.261368 -8.56428 18.4369
Si 0.310881 -10.186 18.7742
Si 0.211573 -6.91939 18.6461
O 0.2608 -8.56431 15.8879
Si 0.310772 -10.186 15.5506
Si 0.211322 -6.91942 15.6787
O 0.32727 -10.7248 17.1624
O 0.193446 -6.32521 17.1624
O 0.198326 -6.49107 13.3483
O 0.198534 -6.49106 20.9765
O 1.30907 6.66912 19.4066
O 1.3095 6.66902 14.918
O 1.68135 8.55705 12.9639
Si 1.98822 10.1237 13.3505
Si 1.37048 6.97805 13.2525
O 1.67989 8.5573 21.3607
Si 1.98796 10.1237 20.9741
Si 1.36964 6.97817 21.0722
O 2.09352 10.6602 22.5931
O 1.25833 6.41013 22.5931
O 3.22114 10.1745 14.4638
O 0.865799 10.6376 19.8611
O 3.22108 10.1744 19.8611
O 0.86582 10.6375 14.4633
O 3.95167 -7.60283 18.437
Si 4.69929 -9.04281 18.7743
Si 3.19222 -6.14289 18.6462
O 3.95124 -7.60309 15.8879
Si 4.69921 -9.04289 15.5506
Si 3.19198 -6.14305 15.6788
O 4.94775 -9.52117 17.1625
O 2.91789 -5.61554 17.1625
O 2.9943 -5.7626 13.3484
O 2.99449 -5.76251 20.9765
O -1.71375 6.57744 19.4065
O -1.71332 6.57747 14.9179
O -2.19815 8.43945 12.9638
Si -2.60096 9.98424 13.3503
Si -1.79251 6.88209 13.2523
O -2.19969 8.43919 21.3606
Si -2.60124 9.98429 20.974
Si -1.79332 6.88204 21.072
O -2.73886 10.5133 22.5929
O -1.64684 6.32194 22.5929
O -1.51214 10.5652 14.4635
O -3.8351 9.96022 19.8608
O -1.51216 10.5651 19.8611
O -3.835 9.96006 14.4633
O 6.85772 -5.13499 18.437
Si 8.15612 -6.10786 18.7743
Si 5.54005 -4.14916 18.6462
O 6.85737 -5.13551 15.8881
Si 8.15607 -6.10799 15.5507
Si 5.5399 -4.14943 15.6789
O 8.58765 -6.43092 17.1625
O 5.06399 -3.79313 17.1625
O 5.1972 -3.89299 13.3484
O 5.19725 -3.89272 20.9767
O -4.39697 5.18248 19.4064
O -4.39659 5.18264 14.9177
O -5.641 6.65046 12.9637
Si -6.67481 7.86697 13.3502
Si -4.60034 5.42289 13.2522
O -5.64212 6.6497 21.3604
Si -6.67505 7.86693 20.9738
Si -4.60094 5.4226 21.0719
O -7.02884 8.28365 22.5928
O -4.22623 4.98126 22.5928
O -5.94613 8.86307 14.4633
O -7.77595 7.30942 19.8606
O -5.94615 8.86307 19.861
O -7.7758 7.30933 14.4633
O 8.40551 -1.65097 18.4372
Si 9.99753 -1.96399 18.7744
Si 6.79061 -1.33423 18.6463
O 8.40543 -1.65173 15.8881
Si 9.99756 -1.96416 15.5509
Si 6.79061 -1.33458 15.6789
O 10.5265 -2.06778 17.1626
O 6.20726 -1.22 17.1626
O 6.36959 -1.25208 13.3486
O 6.36952 -1.2517 20.9766
O -6.20882 2.761 19.4063
O -6.20857 2.76126 14.9177
O -7.96763 3.5413 12.9637
Si -9.42591 4.19104 13.3501
Si -6.49638 2.88909 13.2522
O -7.96803 3.54055 21.3604
Si -9.426 4.19094 20.9739
Si -6.49663 2.88871 21.0719
O -9.92545 4.41326 22.5928
O -5.96725 2.6544 22.5928
O -9.20123 5.40478 14.463
O -10.1763 3.21139 19.8605
O -9.20127 5.40476 19.8612
O -10.1762 3.2114 14.4634
O 8.28846 2.15989 18.4372
Si 9.85864 2.56842 18.7745
Si 6.69608 1.74458 18.6463
O 8.28872 2.15925 15.8882
Si 9.85877 2.56832 15.551
Si 6.69627 1.74425 15.679
O 10.3804 2.70419 17.1627
O 6.12088 1.59452 17.1626
O 6.28134 1.63612 13.3487
O 6.28119 1.63661 20.9767
O -6.79079 -0.206784 19.4064
O -6.79071 -0.206506 14.9179
O -8.71362 -0.265452 12.9638
Si -10.3094 -0.314025 13.3502
Si -7.10502 -0.216134 13.2523
O -8.71371 -0.265273 21.3605
Si -10.3095 -0.31399 20.974
Si -7.10511 -0.216383 21.072
O -10.8559 -0.330746 22.5929
O -6.52644 -0.198616 22.5929
O -10.6339 0.876828 14.4631
O -10.5605 -1.52232 19.861
O -10.6341 0.8768 19.8611
O -10.5605 -1.52228 14.4633
O 6.53117 5.54231 18.4371
Si 7.76817 6.59219 18.7744
Si 5.27603 4.47796 18.6463
O 6.53138 5.54219 15.8881
Si 7.76827 6.59222 15.5509
Si 5.27634 4.47775 15.6789
O 8.17929 6.94092 17.1627
O 4.8228 4.09335 17.1626
O 4.94946 4.20034 13.3486
O 4.94906 4.20086 20.9767
O -6.02815 -3.13345 19.4065
O -6.02825 -3.13321 14.918
O -7.7358 -4.0198 12.9639
Si -9.15214 -4.75653 13.3504
Si -6.30746 -3.27826 13.2524
O -7.73574 -4.02019 21.3606
Si -9.15223 -4.75663 20.9742
Si -6.30748 -3.27854 21.0721
O -9.63731 -5.00872 22.5931
O -5.79372 -3.01164 22.593
O -9.96089 -3.82441 14.4635
O -8.85427 -5.95438 19.8613
O -9.96098 -3.82447 19.8611
O -8.85423 -5.95431 14.4633
O 3.48003 7.82841 18.4369
Si 4.13904 9.31102 18.7742
Si 2.81099 6.3249 18.6461
O 3.48019 7.82833 15.8879
Si 4.13906 9.311 15.5506
Si 2.81132 6.32475 15.6787
O 4.35814 9.80351 17.1624
O 2.56949 5.78169 17.1624
O 2.63733 5.93328 13.3483
O 2.63657 5.93343 20.9765
O -4.07193 -5.43993 19.4066
O -4.07212 -5.43977 14.918
O -5.22637 -6.97932 12.9639
Si -6.18259 -8.25773 13.3505
Si -4.26093 -5.69174 13.2524
O -5.22574 -6.97977 21.3607
Si -6.18249 -8.25779 20.9742
Si -4.26072 -5.69188 21.0722
O -6.51027 -8.69537 22.5931
O -3.91362 -5.22861 22.5931
O -7.31547 -7.7686 14.4637
O -5.39439 -9.20772 19.8613
O -7.31542 -7.76858 19.861
O -5.39438 -9.20767 14.4633
O -0.260897 8.5641 18.4367
Si -0.310507 10.1858 18.7741
Si -0.211285 6.91921 18.6459
O -0.26051 8.56409 15.8877
Si -0.310442 10.1858 15.5504
Si -0.210923 6.91919 15.6785
O -0.326923 10.7246 17.1622
O -0.193109 6.325 17.1622
O -0.197709 6.49086 13.3482
O -0.198469 6.4909 20.9763
O -1.30883 -6.6693 19.4067
O -1.30905 -6.66926 14.9181
O -1.6803 -8.55739 12.964
Si -1.98775 -10.124 13.3505
Si -1.36982 -6.97832 13.2525
O -1.68019 -8.55737 21.3607
Si -1.98772 -10.1239 20.9742
Si -1.36961 -6.9783 21.0722
O -2.09317 -10.6604 22.5931
O -1.258 -6.41032 22.5931
O -3.22077 -10.1747 14.4637
O -0.865446 -10.6377 19.8613
O -3.22075 -10.1747 19.861
O -0.865477 -10.6378 14.4634
O -3.95129 7.60275 18.4367
Si -4.69896 9.04271 18.7739
Si -3.19194 6.14276 18.6458
O -3.95094 7.60286 15.8875
Si -4.69887 9.04268 15.5503
Si -3.19159 6.14287 15.6784
O -4.94741 9.52101 17.1621
O -2.91756 5.61538 17.1621
O -2.99374 5.76244 13.3481
O -2.99437 5.76228 20.9761
O 1.71398 -6.5776 19.4067
O 1.71376 -6.57768 14.9181
O 2.19907 -8.43955 12.964
Si 2.60142 -9.98446 13.3506
Si 1.79314 -6.88228 13.2525
O 2.19936 -8.43948 21.3608
Si 2.60147 -9.98445 20.9742
Si 1.79336 -6.88223 21.0723
O 2.73922 -10.5135 22.5932
O 1.64721 -6.32211 22.5932
O 1.51249 -10.5653 14.4636
O 3.8354 -9.96029 19.8612
O 1.51252 -10.5654 19.8612
O 3.83538 -9.96032 14.4636
O -6.85741 5.13488 18.4365
Si -8.15582 6.10775 18.7738
Si -5.53978 4.14901 18.6457
O -6.85706 5.13521 15.8875
Si -8.15569 6.10777 15.5502
Si -5.53949 4.14925 15.6783
O -8.58731 6.43076 17.162
O -5.06364 3.79297 17.1621
O -5.19676 3.89288 13.3479
O -5.19708 3.89254 20.9762
O 4.3972 -5.18261 19.4068
O 4.39702 -5.18281 14.9182
O 5.64178 -6.65037 12.9641
Si 6.67526 -7.86715 13.3507
Si 4.6009 -5.42301 13.2526
O 5.64214 -6.65 21.3609
Si 6.67528 -7.86707 20.9743
Si 4.60106 -5.42279 21.0724
O 7.02918 -8.28382 22.5932
O 4.22656 -4.98144 22.5933
O 5.94647 -8.86325 14.4636
O 7.77621 -7.30952 19.8611
O 5.94647 -8.8632 19.8614
O 7.77622 -7.30957 14.4638
O -8.40521 1.65084 18.4366
Si -9.99724 1.96383 18.7738
Si -6.79033 1.33407 18.6458
O -8.40496 1.65162 15.8875
Si -9.9971 1.96397 15.5503
Si -6.79016 1.33439 15.6784
O -10.5262 2.06758 17.162
O -6.20688 1.21982 17.1621
O -6.36921 1.2519 13.3481
O -6.36922 1.25158 20.976
O 6.20907 -2.76115 19.4069
O 6.20902 -2.76145 14.9183
O 7.96811 -3.54131 12.9642
Si 9.42631 -4.19119 13.3507
Si 6.49682 -2.88923 13.2527
O 7.96816 -3.54087 21.3609
Si 9.42622 -4.1911 20.9744
Si 6.49681 -2.88887 21.0725
O 9.92577 -4.41343 22.5933
O 5.96757 -2.65455 22.5934
O 9.20159 -5.40496 14.4635
O 10.1766 -3.21153 19.8611
O 9.20156 -5.40489 19.8617
O 10.1767 -3.2116 14.464
O -8.28814 -2.16017 18.4367
Si -9.85835 -2.56864 18.774
Si -6.6958 -1.74475 18.6459
O -8.28834 -2.15935 15.8878
Si -9.85838 -2.56847 15.5505
Si -6.69586 -1.74444 15.6785
O -10.38 -2.70437 17.1622
O -6.12054 -1.59469 17.1622
O -6.28074 -1.63637 13.3482
O -6.28088 -1.63665 20.9762
O 6.79105 0.20664 19.4069
O 6.79118 0.206302 14.9184
O 8.71414 0.264721 12.9643
Si 10.3099 0.313778 13.3508
Si 7.10555 0.215849 13.2528
O 8.714 0.265244 21.361
Si 10.3098 0.313852 20.9746
Si 7.10538 0.2163 21.0725
O 10.8563 0.33059 22.5934
O 6.52685 0.198502 22.5934
O 10.6344 -0.877012 14.4637
O 10.5608 1.52214 19.8615
O 10.6344 -0.876964 19.8617
O 10.5609 1.52212 14.4638
O -6.53075 -5.54258 18.4368
Si -7.76781 -6.5924 18.7741
Si -5.27572 -4.47812 18.646
O -6.53098 -5.54231 15.8878
Si -7.76786 -6.59234 15.5506
Si -5.27589 -4.47792 15.6786
O -8.17892 -6.94106 17.1623
O -4.82242 -4.09351 17.1623
O -4.94892 -4.2007 13.3482
O -4.9489 -4.20092 20.9764
O 6.02842 3.13331 19.4069
O 6.02872 3.13302 14.9184
O 7.73636 4.01953 12.9643
Si 9.15263 4.75636 13.3508
Si 6.30804 3.27798 13.2528
O 7.73575 4.02056 21.361
Si 9.15251 4.75651 20.9746
Si 6.30767 3.27853 21.0725
O 9.63772 5.00853 22.5934
O 5.79415 3.01142 22.5934
O 9.96134 3.82425 14.464
O 8.85466 5.95421 19.8616
O 9.96123 3.82424 19.8616
O 8.85466 5.95418 14.4637
O -3.47964 -7.82865 18.4369
Si -4.13868 -9.31125 18.7741
Si -2.8107 -6.32509 18.646
O -3.48 -7.82845 15.8878
Si -4.13874 -9.31118 15.5505
Si -2.81092 -6.32496 15.6786
O -4.35779 -9.80372 17.1623
O -2.56913 -5.7819 17.1623
O -2.63673 -5.93358 13.3482
O -2.6365 -5.93355 20.9764
O 4.07218 5.43977 19.4068
O 4.07258 5.43956 14.9182
O 5.22731 6.9787 12.9641
Si 6.18304 8.25747 13.3507
Si 4.26154 5.69138 13.2526
O 5.22552 6.97992 21.3609
Si 6.18271 8.25762 20.9744
Si 4.26078 5.69181 21.0724
O 6.5106 8.69516 22.5933
O 3.91395 5.22839 22.5933
O 7.3159 7.76848 14.464
O 5.39474 9.20753 19.8614
O 7.31571 7.76832 19.8613
O 5.39469 9.20742 14.4634
O 0.261359 -8.56428 29.2984
Si 0.310885 -10.186 29.6357
Si 0.211581 -6.91939 29.5076
O 0.260799 -8.56431 26.7494
Si 0.310778 -10.186 26.4121
Si 0.21133 -6.91942 26.5402
O 0.327281 -10.7248 28.0239
O 0.193455 -6.32521 28.0239
O 0.198335 -6.49107 24.2098
O 0.19854 -6.49107 31.838
O 1.30908 6.66912 30.2681
O 1.30951 6.66902 25.7795
O 1.68144 8.55704 23.8254
Si 1.98823 10.1237 24.212
Si 1.3705 6.97805 24.114
O 1.67989 8.55731 32.2222
Si 1.98796 10.1238 31.8356
Si 1.36965 6.97818 31.9337
O 2.09352 10.6602 33.4546
O 1.25834 6.41014 33.4546
O 3.22115 10.1745 25.3253
O 0.865802 10.6376 30.7226
O 3.22108 10.1744 30.7226
O 0.86582 10.6375 25.3248
O 3.95169 -7.60283 29.2985
Si 4.6993 -9.04282 29.6358
Si 3.19223 -6.1429 29.5077
O 3.95126 -7.60309 26.7494
Si 4.69922 -9.04289 26.4121
Si 3.19199 -6.14305 26.5403
O 4.94776 -9.52117 28.024
O 2.9179 -5.61554 28.024
O 2.99431 -5.76259 24.2099
O 2.99449 -5.76249 31.838
O -1.71374 6.57745 30.268
O -1.71331 6.57747 25.7794
O -2.19819 8.43945 23.8253
Si -2.60097 9.98425 24.2118
Si -1.79251 6.8821 24.1138
O -2.19967 8.43919 32.2221
Si -2.60123 9.98429 31.8355
Si -1.79331 6.88204 31.9335
O -2.73886 10.5133 33.4544
O -1.64684 6.32193 33.4544
O -1.51214 10.5652 25.325
O -3.83509 9.96022 30.7223
O -1.51216 10.5651 30.7226
O -3.835 9.96008 25.3248
O 6.85773 -5.13498 29.2985
Si 8.15612 -6.10786 29.6358
Si 5.54006 -4.14915 29.5077
O 6.85738 -5.13551 26.7496
Si 8.15607 -6.10799 26.4122
Si 5.5399 -4.14943 26.5404
O 8.58765 -6.43092 28.024
O 5.06399 -3.79313 28.024
O 5.19722 -3.893 24.2099
O 5.19727 -3.89272 31.8382
O -4.39696 5.18248 30.2679
O -4.39658 5.18264 25.7792
O -5.64097 6.65047 23.8252
Si -6.6748 7.86697 24.2117
Si -4.60033 5.42288 24.1137
O -5.64211 6.64971 32.2219
Si -6.67505 7.86693 31.8353
Si -4.60093 5.4226 31.9334
O -7.02885 8.28365 33.4543
O -4.22623 4.98126 33.4543
O -5.94613 8.86307 25.3248
O -7.77594 7.30942 30.7221
O -5.94615 8.86307 30.7225
O -7.77579 7.30932 25.3248
O 8.40552 -1.65097 29.2987
Si 9.99754 -1.964 29.6359
Si 6.79062 -1.33423 29.5078
O 8.40544 -1.65174 26.7496
Si 9.99757 -1.96416 26.4124
Si 6.79062 -1.33459 26.5404
O 10.5265 -2.06778 28.0241
O 6.20727 -1.22 28.0241
O 6.3696 -1.25208 24.2101
O 6.36952 -1.25171 31.8381