2688
 Atoms. Timestep: 64080
O 11.308 2.45703 3.87589
Si 12.9264 2.72364 3.80751
Si 9.71142 2.86294 3.7993
O 11.3756 0.250048 5.44611
Si 13.0061 -0.0510831 5.32828
Si 9.72207 0.203547 5.40295
O 13.4953 -0.0796753 6.91923
O 7.20489 12.9993 4.4441
O 7.24109 -13.453 4.31176
O 9.2158 0.0114621 6.94035
O 4.95868 9.71529 3.95771
O 6.41129 -10.1632 5.36311
O 11.1812 4.69909 -1.18807
Si 12.6549 5.38754 -1.01161
Si 9.60643 4.76867 -0.799087
O 11.3306 2.19832 0.746564
Si 12.927 2.63402 0.623715
Si 9.68146 2.19998 0.794452
O 13.3994 2.72623 2.21592
O 4.61365 13.9744 -0.321671
O 9.34985 -11.6607 -0.53196
O 9.20315 2.28026 2.33981
O 3.37905 12.4754 -1.29935
O 6.80312 -8.22652 -0.104407
O 10.9214 6.7246 3.0845
Si 11.9497 7.92848 3.55588
Si 9.47902 5.97292 3.18617
O 11.0569 5.27699 5.93895
Si 12.6296 5.47051 5.44214
Si 9.40858 5.17499 5.86493
O 13.1807 5.51205 7.01436
O 1.76563 13.9676 4.20785
O 11.2891 -9.46708 4.22914
O 8.91976 5.12379 7.38985
O 0.651877 10.9281 3.23451
O 8.68169 -6.478 5.05489
O 9.17461 9.21283 -1.78351
Si 10.2663 10.3695 -1.33011
Si 7.68197 8.53697 -1.77097
O 10.2164 8.24253 0.655351
Si 11.8552 8.23304 0.425215
Si 8.87082 7.33538 0.669307
O 12.3895 8.32707 1.99773
O -1.1553 13.6945 -0.63761
O 12.6312 -7.08527 -0.612202
O 8.5768 6.75514 2.12645
O -0.289062 9.60799 -0.547315
O 10.188 -5.53811 0.541298
O 7.35872 10.6438 3.05237
Si 8.17035 11.995 3.51967
Si 6.28384 9.40289 3.05733
O 8.99953 9.01307 5.31978
Si 10.1929 10.1229 5.11508
Si 8.04442 7.71034 4.96696
O 10.6143 10.6134 6.64944
O -3.86453 13.2452 4.28246
O 13.3332 -4.26466 4.31719
O 7.38392 7.77766 6.44296
O -3.12142 9.00886 4.132
O 10.5936 -2.51894 5.39603
O 5.75258 12.3346 -1.74168
Si 6.0646 13.8412 -1.2052
Si 4.4234 11.4554 -2.08422
O 6.91705 11.5513 0.45989
Si 8.33646 12.3861 0.381066
Si 6.02961 10.2453 0.0910625
O 8.58584 12.5926 2.01647
O -6.66856 12.3045 -0.499283
O 13.3542 -1.51861 -0.364986
O 5.9424 9.33391 1.45024
O -4.91219 8.62666 -0.293763
O 9.3582 -1.52601 -0.399858
O 3.22183 11.9418 3.45114
Si 3.2326 13.6159 3.44361
Si 2.09285 11.095 2.40986
O 4.90031 12.0201 5.72724
Si 5.79324 13.3689 5.2631
Si 3.9433 10.7913 4.65825
O 6.05686 14.1362 6.72928
O -9.56428 11.6625 4.09746
O 13.4834 1.35596 4.57507
O 3.71738 10.5197 6.30806
O -7.715 10.7229 4.98867
O 9.18911 1.57477 4.70829
O 0.449737 11.7992 -1.80768
Si 0.300806 13.4016 -1.4055
Si 0.670174 10.1671 -1.72111
O 2.77307 11.6679 0.762205
Si 3.09352 13.271 0.177871
Si 3.15347 9.99482 -0.0476702
O 3.22 13.8923 1.78019
O -11.5991 9.47894 -0.789572
O 13.2473 4.09639 -0.122697
O 2.60532 9.81519 1.49157
O -9.0106 8.02652 -0.199908
O 9.11457 3.43474 -0.0660592
O -2.39239 11.3704 3.29755
Si -2.42887 13.0238 3.43728
Si -1.98388 9.76846 3.27195
O 0.381501 11.8512 5.33854
Si 0.374551 13.4654 5.01926
Si 0.609372 10.2888 4.83232
O 0.328125 13.9704 6.61566
O -13.3177 7.42752 4.08425
O 12.7666 6.88551 4.57608
O 0.544153 9.66458 6.34459
O -9.84246 6.83196 4.77062
O 9.58118 4.35086 3.01757
O -4.87582 10.8307 -1.67725
Si -5.20697 12.3946 -1.33145
Si -4.13371 9.39577 -1.47157
O -1.77006 11.5675 0.473758
Si -2.4266 13.0548 0.247212
Si -1.65354 9.96069 0.241122
O -2.52049 13.532 1.847
O -14.0742 4.36858 -0.768978
O 11.5013 9.58588 -0.517628
O -1.85881 9.31646 1.71534
O -9.81284 3.64856 -0.591696
O 7.77922 7.64475 -0.444163
O -7.04363 10.3591 3.00416
Si -7.89272 11.6826 3.59072
Si -6.75997 8.77076 3.2694
O -4.57462 10.9397 5.16432
Si -5.14579 12.4968 5.07111
Si -4.38559 9.2985 5.09882
O -5.31388 12.9326 6.68112
O -14.2956 1.7459 4.09537
O 9.51081 11.4019 4.3038
O -4.1861 8.79208 6.62523
O -10.6609 2.23618 4.5091
O 7.04832 8.12525 3.73867
O -9.14607 9.10571 64.8909
Si -10.2584 10.1756 -1.57395
Si -8.39734 7.45934 -1.68536
O -7.31134 9.79936 0.197213
Si -7.83563 11.3669 0.276339
Si -6.38186 8.43924 0.316414
O -8.06489 11.8749 1.87529
O -13.9631 -1.39661 -0.890783
O 7.49161 13.6014 -0.39566
O -6.48488 8.0405 1.86862
O -10.3756 -1.27625 -1.21584
O 4.58044 10.5162 -0.675613
O -10.8522 8.61794 3.2385
Si -12.5124 8.67962 3.27258
Si -9.49158 7.77812 3.54306
O -9.84349 9.5579 5.24055
Si -10.8135 10.8224 4.9254
Si -8.27451 9.30817 5.62886
O -10.8218 10.9248 6.62428
O -13.5546 -3.93271 3.95726
O 4.61433 14.0105 4.2741
O -7.78256 7.93368 6.43718
O -10.0513 -2.29014 4.24039
O 2.31705 10.3004 4.14115
O -11.8377 5.03065 -1.52969
Si -13.358 5.6964 -1.5351
Si -10.1933 4.89583 -1.52244
O -11.4206 7.25743 0.707565
Si -12.4741 8.33163 0.101607
Si -9.86014 6.92603 0.728975
O -12.9331 8.79884 1.65279
O -12.4071 -6.93495 -0.886923
O 1.63092 13.8078 -0.481948
O -9.24121 6.94045 2.20008
O -8.39321 -5.42409 -0.748292
O 2.11282 9.68798 -1.21277
O -12.3335 3.36542 2.87565
Si -13.9224 3.1472 3.22793
Si -10.7559 3.11954 3.17269
O -11.9703 5.32063 5.1894
Si -13.4542 5.91311 4.83655
Si -10.3532 5.36347 5.05152
O -13.885 5.94122 6.45959
O -11.1607 -9.22869 3.90295
O -1.07254 13.6641 4.19059
O -9.77358 4.82576 6.43795
O -8.35498 -6.86251 4.23733
O -0.614631 9.50251 4.08397
O -12.2488 0.511492 -1.84187
Si -13.8218 0.126381 -1.60635
Si -10.6563 0.209231 -1.70491
O -12.1422 2.87324 0.125023
Si -13.8004 2.91225 0.0416532
Si -10.5355 2.49102 0.257114
O -14.3637 3.02228 1.61391
O -9.38408 -11.7642 -0.938873
O -3.92506 13.0891 -0.503551
O -10.1382 2.54472 1.81136
O -7.69745 -8.04708 -0.686222
O -2.62526 9.48368 -0.951359
O -12.1496 -1.72827 2.77857
Si -13.5864 -2.46433 3.12651
Si -10.5529 -1.44407 2.96248
O -12.3201 0.208934 5.15363
Si -13.9291 0.268535 4.83113
Si -10.78 0.733939 5.01485
O -14.3857 0.144293 6.44526
O -6.64987 -13.0648 3.92531
O -6.60243 12.5774 4.24396
O -10.107 0.448716 6.45273
O -4.34038 -9.56659 3.57602
O -5.60779 8.55287 4.36824
O -10.8256 -5.15616 -1.77088
Si -12.4601 -5.43539 -1.65719
Si -9.31675 -4.4845 -1.6834
O -11.8133 -2.81056 0.285078
Si -13.4195 -2.7559 -0.0487616
Si -10.3112 -2.2341 0.0706282
O -14.0116 -2.73119 1.52173
O -4.17389 -14.1652 -0.689705
O -9.28654 11.1541 -0.585228
O -9.8779 -1.66114 1.51464
O -3.47152 -10.084 -0.469639
O -7.07669 7.44399 -0.73506
O -10.5438 -6.65785 2.84919
Si -11.6822 -7.82011 3.11953
Si -9.06362 -6.02099 3.08711
O -11.2585 -4.65653 5.04644
Si -12.777 -5.21144 4.73728
Si -9.90066 -3.75148 4.8575
O -13.2357 -5.45046 6.33542
O -1.09567 -14.7479 4.15955
O -12.095 10.0936 4.12417
O -9.28734 -3.77303 6.35373
O 0.00711705 -10.7379 3.95294
O -8.16998 8.56686 4.11381
O -9.07693 -9.62952 64.8259
Si -10.253 -10.5923 -1.77683
Si -8.49091 -8.14885 64.9071
O -10.1085 -7.42716 0.492276
Si -11.5269 -8.096 -0.0454622
Si -8.60208 -6.74931 0.205498
O -12.0789 -8.2079 1.53875
O 1.5061 -14.9459 -0.525999
O -13.362 7.18101 -0.747824
O -8.2862 -6.20623 1.69575
O 0.810811 -10.8669 -0.0035466
O -9.47651 6.20873 -0.883213
O -6.4701 -10.9177 2.67761
Si -7.65892 -12.0291 3.04022
Si -5.6311 -9.49848 2.60931
O -8.5755 -9.49761 4.31249
Si -10.007 -10.2753 4.57891
Si -7.57824 -8.22477 4.46938
O -10.4589 -10.7609 6.12888
O 4.65514 -14.7898 4.29832
O -14.1699 4.63667 3.99231
O -7.1817 -8.32247 6.00018
O 4.78054 -10.6634 4.3241
O -10.0874 4.43711 3.77829
O -4.54751 -11.8819 -1.91421
Si -5.29593 -13.3147 -1.61245
Si -4.35657 -10.2569 -1.81144
O -7.48227 -10.5403 0.15972
Si -7.94385 -12.094 -0.125274
Si -6.6376 -9.19046 -0.198962
O -8.0405 -12.528 1.48805
O 6.93014 -13.1396 -0.421833
O -14.2821 1.48984 -0.723673
O -5.69354 -8.97459 1.08881
O 4.74036 -9.71168 0.0353078
O -10.1319 1.15369 -0.52233
O -1.6276 -12.6625 3.01144
Si -2.40334 -14.0861 3.31678
Si -1.40671 -11.0572 3.23224
O -4.83242 -11.6242 5.01681
Si -5.21011 -13.2061 4.8029
Si -3.84492 -10.3234 4.92013
O -5.45838 -13.6968 6.38427
O 9.41501 -11.583 4.29504
O -14.2441 -1.13959 3.95231
O -3.97889 -9.68157 6.40953
O 6.80868 -8.30693 4.45363
O -10.2522 -0.0609362 3.72055
O 0.427911 -12.854 -1.59129
Si 0.149077 -14.4594 -1.3883
Si 0.11059 -11.2535 -1.41734
O -2.79946 -12.4781 0.52902
Si -2.71731 -14.0837 0.156035
Si -2.35118 -10.9193 0.339411
O -2.66156 -14.6034 1.74703
O 11.4701 -9.73429 -0.612217
O -13.3567 -4.23377 -0.878557
O -1.76929 -10.4239 1.77575
O 8.84932 -6.75482 -0.30481
O -9.31617 -3.28223 -0.615902
O 3.64048 -12.9184 3.29265
Si 3.22047 -14.5135 3.46956
Si 3.44871 -11.3165 3.59056
O 0.31571 -12.8185 5.32058
Si 0.326461 -14.4337 5.00845
Si 0.869744 -11.2755 5.21586
O 0.221498 -14.9556 6.59263
O 12.782 -7.08064 4.2579
O -12.6674 -6.69999 3.93729
O 0.574286 -10.6797 6.70136
O 9.63772 -4.07302 4.58492
O -9.10151 -4.55452 3.72103
O 5.08991 -11.8811 -1.85284
Si 5.55952 -13.4101 -1.34487
Si 4.02356 -10.6555 -1.02056
O 2.08229 -13.1122 0.995261
Si 2.85047 -14.4176 0.3361
Si 1.94604 -11.4932 0.982667
O 3.14628 -14.9987 1.87705
O 13.2131 -4.32107 -0.426844
O -11.2494 -9.55434 -0.87241
O 2.68778 -10.8159 2.24857
O 8.99792 -3.90055 0.0721132
O -9.33367 -7.09284 -1.32086
O 7.25448 -10.8548 3.22058
Si 8.0938 -12.2435 3.50282
Si 6.23113 -9.66682 3.73864
O 5.06225 -12.5769 5.35692
Si 5.8575 -13.9748 5.12449
Si 5.22612 -11.1026 6.04703
O 5.92511 -14.1634 6.79643
O 13.4393 -1.43694 4.49015
O -9.09289 -11.4879 3.76837
O 4.16181 -10.2637 7.00542
O 9.27912 -1.04018 4.46683
O -6.39751 -8.36212 3.42649
O 8.87865 -9.34105 -1.2866
Si 10.1362 -10.4141 -1.33901
Si 8.03579 -7.93989 -1.09265
O 7.23618 -10.6563 0.691831
Si 7.98406 -12.091 0.342572
Si 6.1456 -9.42262 0.734362
O 8.34519 -12.5996 1.89071
O 13.47 1.29175 -0.225318
O -6.80694 -13.0368 -0.928642
O 5.84996 -9.0864 2.27472
O 9.19705 0.929506 -0.0713021
O -5.72236 -9.50632 -1.47505
O 10.5767 -7.07621 3.0338
Si 11.8351 -8.13146 3.37913
Si 9.7864 -5.76057 4.119
O 8.95161 -9.17376 5.54069
Si 10.0942 -10.2707 5.08293
Si 7.9738 -7.85775 5.47373
O 10.474 -10.6951 6.65325
O 13.2097 4.15425 4.6059
O -3.89021 -13.9939 4.10802
O 7.53538 -7.58952 7.00749
O 9.14314 3.77848 5.06721
O -2.33977 -10.6719 4.49587
O 11.0633 -4.96238 -1.77677
Si 12.5774 -5.56897 -1.35257
Si 9.41499 -5.13403 -0.910506
O 10.5177 -8.09311 0.801545
Si 12.0122 -8.40089 0.230257
Si 9.63059 -6.86665 1.40367
O 12.4201 -8.50082 1.85828
O 12.5786 6.91204 -0.314313
O -1.35914 -14.6375 -0.667495
O 9.08702 -5.81902 2.59883
O 9.56187 5.94099 0.27284
O -1.38236 -10.91 -0.958913
O 11.4354 -2.50198 3.27835
Si 13.0256 -2.789 3.58741
Si 9.86603 -2.42394 3.8146
O 11.135 -5.24668 5.19371
Si 12.756 -5.64075 5.08104
Si 10.5663 -3.96214 6.27137
O 13.1766 -5.70722 6.69157
O 11.3931 9.29576 4.31923
O 1.78166 -14.8456 4.27243
O 9.25496 -4.34026 7.23139
O 8.92392 6.31243 4.71699
O 2.42179 -11.1875 4.83103
O 11.3755 0.164817 -1.2223
Si 12.9984 -0.0651168 -1.08877
Si 9.76823 -0.148337 -1.13214
O 11.3096 -2.97231 0.793632
Si 12.9178 -2.91114 0.431802
Si 9.70617 -2.61872 0.743431
O 13.5078 -2.86007 1.99156
O 9.5672 11.6473 -0.490491
O 4.28122 -14.1915 -0.543882
O 9.24612 -2.39707 2.28598
O 6.62288 9.6147 -1.2698
O 2.71603 -11.301 -0.429447
O 11.3085 2.45799 13.4737
Si 12.9267 2.72548 13.4051
Si 9.71184 2.86334 13.3969
O 11.3762 0.251507 15.0466
Si 13.0067 -0.0485962 14.9268
Si 9.72274 0.204905 15.0023
O 13.4957 -0.0791363 16.5179
O 7.20196 13 14.0406
O 7.27053 -13.4514 13.9033
O 9.21577 0.0114632 16.5394
O 4.95731 9.71506 13.5535
O 6.45578 -10.1497 14.9401
O 11.1827 4.70089 8.40903
Si 12.6562 5.38969 8.58538
Si 9.608 4.77221 8.79789
O 11.331 2.20108 10.3417
Si 12.9276 2.63652 10.2211
Si 9.68181 2.20361 10.3915
O 13.3996 2.72774 11.8135
O 4.61479 13.9748 9.27729
O 9.34264 -11.6545 9.05605
O 9.20433 2.28064 11.9373
O 3.37992 12.4758 8.29916
O 6.78931 -8.22181 9.48123
O 10.9212 6.72558 12.6819
Si 11.9491 7.92976 13.1535
Si 9.47897 5.97333 12.7832
O 11.0565 5.27814 15.5364
Si 12.6292 5.47204 15.0398
Si 9.40827 5.17566 15.4621
O 13.1802 5.51263 16.6121
O 1.76007 13.965 13.8052
O 11.3 -9.46071 13.8303
O 8.91921 5.12385 16.9869
O 0.649373 10.9251 12.8321
O 8.69673 -6.48169 14.6619
O 9.1765 9.2147 7.81358
Si 10.2678 10.3716 8.26729
Si 7.68393 8.53872 7.82605
O 10.2177 8.24552 10.2546
Si 11.8563 8.23521 10.0229
Si 8.87197 7.33832 10.2673
O 12.3901 8.32839 11.5957
O -1.15232 13.6961 8.96167
O 12.6285 -7.08154 8.98485
O 8.57701 6.75539 11.7231
O -0.281637 9.61077 9.05241
O 10.1872 -5.53637 10.1425
O 7.35892 10.6437 12.6508
Si 8.16904 11.996 13.1174
Si 6.28351 9.40323 12.6545
O 8.99812 9.01377 14.9169
Si 10.1914 10.1237 14.7126
Si 8.04368 7.71055 14.5641
O 10.6128 10.6135 16.2472
O -3.87425 13.2328 13.8764
O 13.3382 -4.2597 13.9147
O 7.38291 7.77704 16.04
O -3.12351 8.99795 13.7259
O 10.5982 -2.51479 14.9921
O 5.75379 12.3362 7.85619
Si 6.0656 13.8426 8.39316
Si 4.42479 11.4566 7.51379
O 6.91888 11.5528 10.0578
Si 8.33799 12.3879 9.97893
Si 6.03197 10.2468 9.6884
O 8.58611 12.5937 11.6147
O -6.66267 12.2997 9.1007
O 13.3545 -1.51531 9.23128
O 5.94401 9.33469 11.047
O -4.89653 8.62978 9.3055
O 9.35787 -1.5199 9.1979
O 3.21859 11.9408 13.0487
Si 3.22837 13.6149 13.0422
Si 2.0901 11.0939 12.007
O 4.89791 12.0191 15.324
Si 5.79028 13.3684 14.8603
Si 3.94138 10.7901 14.2548
O 6.05409 14.1354 16.3265
O -9.57116 11.6271 13.6826
O 13.4838 1.35863 14.1739
O 3.71539 10.5182 15.9045
O -7.72223 10.6788 14.5768
O 9.18983 1.57599 14.3073
O 0.451926 11.8012 7.78924
Si 0.302971 13.4035 8.19208
Si 0.674574 10.1694 7.87597
O 2.77382 11.6679 10.3604
Si 3.09462 13.2713 9.7765
Si 3.15629 9.99531 9.5507
O 3.21783 13.8921 11.379
O -11.5754 9.45585 8.82861
O 13.2484 4.0989 9.47497
O 2.60479 9.81486 11.0887
O -8.98251 7.96964 9.43021
O 9.11489 3.44061 9.53428
O -2.39692 11.3634 12.8986
Si -2.43421 13.0168 13.0365
Si -1.98566 9.76222 12.8701
O 0.379503 11.8473 14.9368
Si 0.369811 13.4615 14.6176
Si 0.607649 10.2852 14.4298
O 0.32416 13.9665 16.2139
O -13.278 7.33853 13.6859
O 12.7659 6.88733 14.1742
O 0.541229 9.66104 15.9423
O -9.80647 6.71696 14.4003
O 9.58152 4.35123 12.615
O -4.86881 10.8326 7.91979
Si -5.20213 12.3953 8.26747
Si -4.12273 9.39995 8.12574
O -1.76321 11.5699 10.0755
Si -2.42283 13.0555 9.84697
Si -1.64576 9.96358 9.84113
O -2.52077 13.5289 11.4474
O -14.0493 4.3562 8.78994
O 11.5026 9.588 9.08
O -1.85595 9.31485 11.3125
O -9.81371 3.59549 8.82432
O 7.7807 7.6472 9.15338
O -7.05751 10.319 12.5982
Si -7.89693 11.6486 13.1865
Si -6.76461 8.73173 12.8642
O -4.58249 10.9229 14.7567
Si -5.15363 12.4797 14.6643
Si -4.39017 9.28213 14.6915
O -5.31991 12.9197 16.2731
O -14.189 1.63936 13.6143
O 9.50918 11.4034 13.9024
O -4.18997 8.7794 16.2194
O -10.4023 2.10708 13.9596
O 7.04746 8.12538 13.3359
O -9.13741 9.10935 7.31643
Si -10.2528 10.1713 8.03167
Si -8.38958 7.46623 7.91431
O -7.30127 9.7913 9.811
Si -7.827 11.3587 9.87564
Si -6.36577 8.43348 9.91235
O -8.05857 11.8617 11.4744
O -14.0987 -1.41749 8.81692
O 7.49277 13.6031 9.20246
O -6.47299 8.01622 11.4593
O -9.90459 -1.20511 8.65891
O 4.58269 10.5176 8.9224
O -10.8228 8.50011 12.8429
Si -12.4779 8.59784 12.8799
Si -9.46776 7.65458 13.1588
O -9.85591 9.51918 14.8191
Si -10.8213 10.7873 14.5088
Si -8.29041 9.26542 15.2093
O -10.825 10.9027 16.2051
O -13.2892 -4.08505 13.6344
O 4.60993 14.01 13.8729
O -7.79811 7.89807 16.0268
O -9.80505 -2.70688 14.028
O 2.31523 10.2983 13.738
O -11.8275 5.0406 7.96702
Si -13.3514 5.69473 8.02658
Si -10.183 4.90228 7.98076
O -11.3904 7.19353 10.2997
Si -12.4345 8.28697 9.70655
Si -9.83207 6.84033 10.3254
O -12.8996 8.73025 11.2621
O -12.5423 -6.96032 8.65178
O 1.63305 13.8091 9.11561
O -9.22333 6.82659 11.805
O -8.59597 -5.50021 8.37184
O 2.11741 9.69052 8.38355
O -12.2321 3.29315 12.4607
Si -13.8264 3.07328 12.7988
Si -10.6372 3.07142 12.7016
O -11.9365 5.20253 14.7897
Si -13.4092 5.8265 14.4446
Si -10.3164 5.24767 14.6995
O -13.8578 5.88144 16.0619
O -11.0544 -9.41484 13.3404
O -1.0798 13.6583 13.7926
O -9.77351 4.72867 16.1122
O -7.67507 -7.0554 13.0678
O -0.616683 9.49778 13.6832
O -12.2015 -0.209506 7.78353
Si -13.8132 0.047348 8.02024
Si -10.5939 0.0573546 7.93923
O -12.1114 2.9798 9.79269
Si -13.7484 2.91255 9.61228
Si -10.5353 2.51711 9.76402
O -14.3006 2.99685 11.1912
O -9.41353 -11.8049 8.73899
O -3.92095 13.0896 9.09608
O -10.0346 2.62638 11.287
O -7.56568 -8.19247 8.97227
O -2.61414 9.49317 8.6434
O -11.895 -1.94054 12.5649
Si -13.3762 -2.60769 12.8175
Si -10.2829 -1.79618 12.7881
O -12.17 0.156184 14.6547
Si -13.7925 0.194848 14.3957
Si -10.6095 0.63284 14.5133
O -14.3188 0.139934 15.9877
O -6.5598 -13.2658 13.5745
O -6.61264 12.5509 13.8403
O -10.0509 0.489512 16.0169
O -4.18554 -9.89068 13.2363
O -5.6083 8.52724 13.9624
O -11.0879 -5.18774 7.56338
Si -12.6743 -5.44354 7.91763
Si -9.64657 -4.45028 7.77082
O -11.8725 -2.21218 9.92257
Si -13.406 -2.7264 9.62723
Si -10.2424 -2.27892 9.81001
O -13.885 -2.82 11.2335
O -4.18791 -14.1377 8.84767
O -9.27834 11.1497 9.01641
O -9.68418 -2.03269 11.3067
O -3.40623 -10.0316 9.14134
O -7.06052 7.44856 8.85235
O -10.233 -6.85608 12.3388
Si -11.4679 -7.93807 12.6195
Si -8.74623 -6.14055 12.3217
O -10.8994 -5.09676 14.5999
Si -12.4968 -5.39562 14.3514
Si -9.53027 -4.20695 14.5161
O -12.9396 -5.58987 15.9553
O -1.0158 -14.8646 13.7159
O -12.0906 10.0263 13.7163
O -8.86191 -4.26648 15.9947
O 0.164505 -10.8975 13.479
O -8.16828 8.49421 13.7105
O -8.79037 -10.0086 7.36585
Si -10.2251 -10.6392 7.80998
Si -7.99636 -8.63026 7.3122
O -10.1621 -7.2966 9.7975
Si -11.5604 -8.088 9.43475
Si -8.648 -6.77957 9.38457
O -11.9771 -8.2517 11.0532
O 1.50582 -14.9468 9.0598
O -13.3374 7.16318 8.8404
O -8.27334 -6.06613 10.7916
O 0.83998 -10.8541 9.59453
O -9.45987 6.18264 8.67719
O -6.38096 -11.2234 12.3574
Si -7.62074 -12.2508 12.7209
Si -5.63022 -9.79199 12.5626
O -9.02302 -9.025 14.1123
Si -9.93615 -10.3894 14.1974
Si -7.61291 -8.21323 14.1507
O -10.4884 -10.7979 15.7375
O 4.70136 -14.8049 13.8905
O -14.1047 4.5403 13.5952
O -7.70057 -7.69786 15.6511
O 4.82063 -10.6786 13.9224
O -10.0014 4.35992 13.4061
O -4.60432 -11.7778 7.75587
Si -5.32844 -13.2366 7.9901
Si -4.43494 -10.1513 7.89931
O -7.5191 -10.613 10.0032
Si -7.97976 -12.1381 9.56883
Si -6.63961 -9.24688 9.81722
O -8.05824 -12.6666 11.1586
O 6.92483 -13.1376 9.16455
O -14.1624 1.46546 8.85796
O -5.85155 -8.98932 11.1888
O 4.71901 -9.71012 9.62496
O -10.2474 1.08656 9.12356
O -1.48998 -12.8526 12.4881
Si -2.32454 -14.2363 12.847
Si -1.20413 -11.2568 12.6909
O -4.54106 -11.889 14.7136
Si -5.09509 -13.4038 14.4067
Si -3.53624 -10.6067 14.5179
O -5.36302 -13.87 15.9928
O 9.43535 -11.5802 13.8797
O -14.0683 -1.27272 13.5992
O -3.68089 -9.90496 15.966
O 6.82439 -8.30606 14.0351
O -9.98205 -0.351094 13.4142
O 0.511947 -12.8437 8.01326
Si 0.166459 -14.4401 8.17886
Si 0.166976 -11.2502 8.16648
O -2.82688 -12.4934 10.0593
Si -2.72453 -14.0983 9.69529
Si -2.31085 -10.956 9.88016
O -2.63427 -14.6841 11.2617
O 11.4653 -9.72926 8.98374
O -13.3873 -4.21172 8.82559
O -1.62889 -10.5441 11.2954
O 8.84495 -6.7494 9.29676
O -9.70722 -3.62117 9.14669
O 3.68256 -12.9556 12.89
Si 3.25679 -14.5502 13.0714
Si 3.49138 -11.3575 13.208
O 0.349932 -12.8999 14.9368
Si 0.365386 -14.5136 14.6146
Si 0.926149 -11.3647 14.8333
O 0.212271 -15.0027 16.2091
O 12.7888 -7.07477 13.8522
O -12.4362 -6.85623 13.4971
O 0.546536 -10.7203 16.281
O 9.64227 -4.07024 14.1837
O -8.73502 -4.83323 13.2597
O 5.06638 -11.8835 7.74669
Si 5.54791 -13.41 8.25138
Si 3.99605 -10.6754 8.5929
O 2.06435 -13.1295 10.6152
Si 2.84185 -14.4248 9.9415
Si 1.93146 -11.5057 10.6235
O 3.152 -15.0215 11.4752
O 13.2116 -4.31759 9.16985
O -11.2336 -9.54178 8.6192
O 2.69324 -10.8441 11.8892
O 8.99733 -3.89406 9.67172
O -8.97114 -7.38162 7.80822
O 7.27707 -10.8524 12.7998
Si 8.11467 -12.2413 13.0879
Si 6.25071 -9.66612 13.315
O 5.10852 -12.5687 14.9534
Si 5.88979 -13.9744 14.7188
Si 5.28787 -11.0945 15.6441
O 5.94997 -14.1586 16.3922
O 13.4407 -1.43303 14.0869
O -8.97804 -11.6098 13.5094
O 4.23158 -10.2341 16.591
O 9.28035 -1.03855 14.0657
O -6.37439 -9.13605 13.8161
O 8.8735 -9.33222 8.30946
Si 10.1307 -10.4057 8.25538
Si 8.03074 -7.93132 8.50549
O 7.2197 -10.6543 10.2691
Si 7.97681 -12.0867 9.92866
Si 6.12876 -9.41964 10.3148
O 8.35059 -12.5964 11.4732
O 13.4706 1.29462 9.37146
O -6.82614 -13.0199 8.7219
O 5.84666 -9.08713 11.858
O 9.19664 0.9353 9.52294
O -5.73061 -9.42014 8.48489
O 10.5806 -7.07253 12.6323
Si 11.8408 -8.12632 12.9757
Si 9.79181 -5.75834 13.7193
O 8.95271 -9.1827 15.1321
Si 10.1055 -10.2704 14.6786
Si 7.98122 -7.86166 15.0674
O 10.4809 -10.698 16.2495
O 13.2096 4.1564 14.2029
O -3.79867 -14.1821 13.6634
O 7.53681 -7.59926 16.6007
O 9.14298 3.77919 14.6643
O -2.05743 -10.9176 14.0212
O 11.0601 -4.95945 7.82189
Si 12.5747 -5.56528 8.24476
Si 9.41357 -5.12939 8.69182
O 10.5158 -8.09069 10.4007
Si 12.0097 -8.39722 9.82697
Si 9.62857 -6.865 11.0044
O 12.4216 -8.49737 11.4538
O 12.5794 6.91431 9.28266
O -1.36161 -14.6173 8.85681
O 9.08643 -5.81909 12.2019
O 9.5676 5.94736 9.86695
O -1.35093 -10.991 8.58403
O 11.4373 -2.50025 12.8752
Si 13.028 -2.78518 13.1841
Si 9.86804 -2.4213 13.4121
O 11.1415 -5.24206 14.7911
Si 12.7623 -5.63654 14.6778
Si 10.5735 -3.95713 15.8685
O 13.1814 -5.70551 16.2888
O 11.3917 9.29706 13.9163
O 1.84251 -14.9006 13.9092
O 9.2604 -4.3362 16.8258
O 8.92356 6.31291 14.314
O 2.48433 -11.2844 14.4711
O 11.3759 0.169122 8.37426
Si 12.9987 -0.0618547 8.5076
Si 9.76848 -0.143568 8.46347
O 11.3099 -2.96652 10.3912
Si 12.9178 -2.90738 10.0286
Si 9.70661 -2.61212 10.3413
O 13.509 -2.85631 11.5879
O 9.56873 11.6493 9.10713
O 4.27503 -14.1893 9.06493
O 9.24743 -2.39127 11.884
O 6.62516 9.61671 8.3273
O 2.73327 -11.377 9.21864
O 11.3075 2.45675 23.0715
Si 12.9257 2.72387 23.0028
Si 9.71091 2.86245 22.9948
O 11.3746 0.249899 24.6418
Si 13.005 -0.0509995 24.5234
Si 9.72108 0.202943 24.5984
O 13.4945 -0.0805841 26.1143
O 7.20198 12.9991 23.6383
O 7.24351 -13.4527 23.4966
O 9.2148 0.0101819 26.1357
O 4.9566 9.7146 23.1515
O 6.40626 -10.1677 24.5516
O 11.182 4.70067 18.0062
Si 12.6554 5.38968 18.1829
Si 9.6073 4.77175 18.3949
O 11.3302 2.2013 19.9397
Si 12.9269 2.63658 19.8188
Si 9.68104 2.20356 19.9891
O 13.3987 2.72739 21.4112
O 4.61127 13.974 18.8735
O 9.35099 -11.6562 18.6575
O 9.20314 2.28096 21.5347
O 3.37733 12.475 17.8953
O 6.80249 -8.22286 19.0852
O 10.9203 6.72462 22.2788
Si 11.9484 7.92857 22.7506
Si 9.4781 5.97227 22.3803
O 11.0558 5.27837 25.1338
Si 12.6286 5.47091 24.637
Si 9.40763 5.17537 25.0593
O 13.1796 5.51191 26.2092
O 1.76125 13.9658 23.4019
O 11.2886 -9.46602 23.4234
O 8.91856 5.12348 26.5842
O 0.649365 10.9259 22.4286
O 8.68127 -6.48086 24.2533
O 9.17458 9.21426 17.4111
Si 10.2658 10.3712 17.8648
Si 7.68216 8.53792 17.4234
O 10.2162 8.245 19.852
Si 11.8548 8.23506 19.6203
Si 8.87065 7.33752 19.8646
O 12.3889 8.32786 21.1929
O -1.15847 13.6915 18.5575
O 12.6315 -7.08123 18.5824
O 8.57588 6.75417 21.3203
O -0.288849 9.6057 18.6488
O 10.1873 -5.53435 19.7366
O 7.35705 10.6435 22.2471
Si 8.16818 11.995 22.7144
Si 6.28212 9.40264 22.2515
O 8.99769 9.01301 24.5138
Si 10.191 10.1229 24.3095
Si 8.04299 7.71006 24.1607
O 10.6126 10.6131 25.844
O -3.87054 13.2412 23.4756
O 13.3316 -4.2643 23.5119
O 7.38248 7.77716 25.6367
O -3.12508 9.0053 23.3274
O 10.5915 -2.52046 24.5919
O 5.75102 12.335 17.4533
Si 6.06254 13.8415 17.9902
Si 4.42216 11.4554 17.1104
O 6.91588 11.5516 19.6545
Si 8.33501 12.3868 19.576
Si 6.02885 10.2455 19.2853
O 8.58409 12.5929 21.2115
O -6.67062 12.2939 18.6898
O 13.3544 -1.51536 18.8304
O 5.94138 9.33384 20.6443
O -4.9097 8.61828 18.8962
O 9.35649 -1.521 18.797
O 3.21886 11.9405 22.6457
Si 3.22887 13.6146 22.6385
Si 2.09042 11.0933 21.6042
O 4.8977 12.0191 24.9215
Si 5.79021 13.3682 24.4574
Si 3.94087 10.7901 23.8525
O 6.05402 14.1354 25.9235
O -9.56866 11.6527 23.2824
O 13.4826 1.35606 23.7703
O 3.71526 10.5183 25.5023
O -7.71888 10.7136 24.174
O 9.18828 1.57417 23.9035
O 0.446226 11.7972 17.3876
Si 0.298131 13.3996 17.7901
Si 0.669183 10.1654 17.4742
O 2.77138 11.6667 19.9569
Si 3.09124 13.27 19.3728
Si 3.15292 9.99412 19.147
O 3.21698 13.8912 20.9751
O -11.5943 9.45588 18.4043
O 13.2476 4.09899 19.0727
O 2.60411 9.81386 20.686
O -9.00839 7.99617 18.998
O 9.11421 3.43998 19.131
O -2.39689 11.3669 22.4928
Si -2.43383 13.0203 22.6317
Si -1.98738 9.76529 22.4677
O 0.37781 11.8493 24.5328
Si 0.370076 13.4635 24.2134
Si 0.606563 10.2871 24.0266
O 0.324086 13.9686 25.8098
O -13.3101 7.40872 23.2828
O 12.7655 6.88587 23.7709
O 0.542216 9.6631 25.539
O -9.83582 6.81596 23.9706
O 9.58068 4.35014 22.2124
O -4.87277 10.8234 17.5134
Si -5.20781 12.3862 17.8605
Si -4.13039 9.38866 17.7199
O -1.77198 11.5639 19.6686
Si -2.42978 13.0505 19.4415
Si -1.654 9.95701 19.4369
O -2.52498 13.5279 21.0411
O -14.0667 4.35047 18.4183
O 11.5007 9.58794 18.6776
O -1.86065 9.3131 20.9112
O -9.80855 3.62983 18.5906
O 7.77927 7.64626 18.7507
O -7.0469 10.3503 22.1912
Si -7.89645 11.6741 22.7773
Si -6.76177 8.7621 22.4567
O -4.58225 10.9352 24.3568
Si -5.1528 12.4925 24.2628
Si -4.39157 9.294 24.2917
O -5.32178 12.9298 25.8727
O -14.2816 1.73049 23.2883
O 9.50867 11.4021 23.4987
O -4.1936 8.78925 25.8191
O -10.6473 2.21241 23.7021
O 7.04673 8.12494 22.9326
O -9.14637 9.08402 16.9025
Si -10.2577 10.155 17.6153
Si -8.39639 7.44084 17.5079
O -7.31059 9.7881 19.3838
Si -7.83736 11.3547 19.4636
Si -6.37977 8.42919 19.5045
O -8.0684 11.8639 21.0617
O -13.9478 -1.41103 18.294
O 7.4896 13.6021 18.7997
O -6.48325 8.03153 21.0569
O -10.368 -1.27551 17.956
O 4.57957 10.5161 18.5189
O -10.8486 8.59084 22.4241
Si -12.5079 8.65779 22.4631
Si -9.48837 7.75224 22.7335
O -9.84836 9.54795 24.4258
Si -10.8179 10.8124 24.1105
Si -8.27947 9.29929 24.8123
O -10.8238 10.9182 25.8095
O -13.5499 -3.94721 23.1451
O 4.61056 14.0096 23.469
O -7.78115 7.93051 25.625
O -10.017 -2.30416 23.4096
O 2.31455 10.2988 23.3356
O -11.8321 5.00629 17.6426
Si -13.3515 5.67369 17.6441
Si -10.1879 4.87268 17.6532
O -11.4177 7.22593 19.897
Si -12.4678 8.30399 19.291
Si -9.85762 6.88988 19.9206
O -12.9299 8.76978 20.8425
O -12.4099 -6.96244 18.3262
O 1.6281 13.806 18.7136
O -9.24007 6.90796 21.3934
O -8.39141 -5.45871 18.4915
O 2.11243 9.68738 17.9818
O -12.3193 3.35716 22.0786
Si -13.9095 3.13404 22.4242
Si -10.7411 3.11055 22.376
O -11.9615 5.30322 24.3956
Si -13.4446 5.89603 24.0392
Si -10.3438 5.34863 24.2651
O -13.8753 5.92432 25.6629
O -11.163 -9.25052 23.108
O -1.07767 13.6613 23.3852
O -9.76587 4.81686 25.6549
O -8.36935 -6.90252 23.4492
O -0.618087 9.50022 23.28
O -12.2416 0.508583 17.3399
Si -13.8108 0.11647 17.5856
Si -10.6494 0.21574 17.485
O -12.1364 2.87671 19.3558
Si -13.7924 2.9004 19.2389
Si -10.5302 2.48673 19.4594
O -14.3563 3.01322 20.8114
O -9.38331 -11.7854 18.248
O -3.92787 13.0828 18.6898
O -10.1207 2.54849 21.0103
O -7.70956 -8.06937 18.5087
O -2.62303 9.478 18.2429
O -12.1312 -1.76056 21.9533
Si -13.5738 -2.47872 22.3151
Si -10.5355 -1.46649 22.132
O -12.3064 0.184773 24.3389
Si -13.9156 0.252479 24.0226
Si -10.7662 0.705097 24.1921
O -14.3692 0.132731 25.6382
O -6.64884 -13.083 23.1108
O -6.60836 12.5709 23.4329
O -10.0879 0.41588 25.6265
O -4.34541 -9.58275 22.7562
O -5.61108 8.54659 23.558
O -10.8172 -5.18842 17.4661
Si -12.4544 -5.46445 17.5527
Si -9.29975 -4.53128 17.5325
O -11.7938 -2.8273 19.4523
Si -13.4046 -2.76954 19.1391
Si -10.2945 -2.24279 19.2343
O -13.9974 -2.74247 20.7089
O -4.16914 -14.1816 18.5019
O -9.28712 11.1378 18.601
O -9.86257 -1.67453 20.6814
O -3.47543 -10.1067 18.736
O -7.07315 7.43151 18.4544
O -10.5542 -6.67608 22.0627
Si -11.6888 -7.84292 22.3261
Si -9.07138 -6.04942 22.305
O -11.263 -4.64488 24.2494
Si -12.7735 -5.22085 23.9339
Si -9.89385 -3.75744 24.0535
O -13.2317 -5.45621 25.533
O -1.0898 -14.7595 23.3465
O -12.096 10.0766 23.3093
O -9.28542 -3.77192 25.5521
O 0.0106835 -10.7473 23.1468
O -8.17125 8.55194 23.3004
O -9.09465 -9.63293 16.8378
Si -10.2564 -10.6119 17.4172
Si -8.51548 -8.1489 16.9271
O -10.1139 -7.47696 19.7131
Si -11.5349 -8.12984 19.1634
Si -8.61075 -6.7924 19.4292
O -12.0875 -8.23566 20.7477
O 1.50844 -14.9416 18.6479
O -13.3538 7.15813 18.4323
O -8.29218 -6.24712 20.9171
O 0.807806 -10.858 19.1672
O -9.47395 6.18361 18.3007
O -6.47393 -10.9377 21.8588
Si -7.66114 -12.0494 22.2267
Si -5.63642 -9.51761 21.7889
O -8.56965 -9.53656 23.5187
Si -10.0093 -10.3017 23.776
Si -7.57749 -8.25875 23.6636
O -10.459 -10.7856 25.3264
O 4.65913 -14.7916 23.4775
O -14.1595 4.62019 23.1939
O -7.1757 -8.35009 25.193
O 4.7781 -10.6647 23.507
O -10.0715 4.42189 22.9934
O -4.54784 -11.9004 17.2766
Si -5.29271 -13.3351 17.578
Si -4.35003 -10.277 17.3882
O -7.47928 -10.5643 19.3429
Si -7.94324 -12.1173 19.0608
Si -6.64196 -9.2114 18.979
O -8.0422 -12.5494 20.6746
O 6.93122 -13.1351 18.7685
O -14.2689 1.47582 18.4754
O -5.69961 -8.99372 20.2684
O 4.74072 -9.7113 19.231
O -10.1386 1.14223 18.6872
O -1.62185 -12.674 22.2046
Si -2.39799 -14.0988 22.504
Si -1.40253 -11.0687 22.4275
O -4.83369 -11.639 24.2
Si -5.20778 -13.2219 23.9869
Si -3.84918 -10.3361 24.1023
O -5.45383 -13.7135 25.5682
O 9.41657 -11.5826 23.4865
O -14.2303 -1.15438 23.1415
O -3.9836 -9.69538 25.5922
O 6.80709 -8.3076 23.6492
O -10.2439 -0.0813292 22.8906
O 0.430121 -12.8492 17.5885
Si 0.149958 -14.4552 17.7877
Si 0.103318 -11.25 17.7554
O -2.7886 -12.4946 19.7273
Si -2.71121 -14.0974 19.3438
Si -2.34546 -10.9352 19.5368
O -2.65242 -14.6179 20.9344
O 11.4704 -9.72965 18.58
O -13.3496 -4.25394 18.3194
O -1.76149 -10.4371 20.9703
O 8.84947 -6.75063 18.8885
O -9.29392 -3.28562 18.547
O 3.64063 -12.9192 22.4685
Si 3.22413 -14.5149 22.6494
Si 3.44797 -11.3176 22.7679
O 0.323332 -12.8296 24.5089
Si 0.333078 -14.4441 24.1931
Si 0.876889 -11.2863 24.406
O 0.229638 -14.9696 25.7759
O 12.7806 -7.07979 23.4515
O -12.6666 -6.71446 23.1429
O 0.581557 -10.6932 25.8922
O 9.6351 -4.07417 23.7807
O -9.09487 -4.58067 22.932
O 5.09184 -11.8755 17.3378
Si 5.5612 -13.4047 17.8446
Si 4.02541 -10.6512 18.1709
O 2.07316 -13.1074 20.1721
Si 2.84759 -14.4116 19.5172
Si 1.93585 -11.4877 20.1619
O 3.14471 -14.9969 21.0561
O 13.2131 -4.31742 18.7678
O -11.2565 -9.58399 18.3294
O 2.67963 -10.8143 21.43
O 8.99799 -3.89637 19.266
O -9.35248 -7.10928 17.9008
O 7.2572 -10.8517 22.4112
Si 8.09617 -12.241 22.6916
Si 6.23136 -9.66567 22.9291
O 5.05943 -12.5829 24.5416
Si 5.86018 -13.9773 24.3068
Si 5.22006 -11.1082 25.2307
O 5.93142 -14.1668 25.9785
O 13.438 -1.43674 23.6851
O -9.0956 -11.5102 22.9568
O 4.16112 -10.2694 26.1946
O 9.27797 -1.04087 23.6624
O -6.40617 -8.38577 22.6092
O 8.87946 -9.33577 17.9041
Si 10.137 -10.4088 17.852
Si 8.03635 -7.93488 18.099
O 7.23891 -10.6517 19.8823
Si 7.98571 -12.0868 19.5322
Si 6.14737 -9.41902 19.9256
O 8.3483 -12.5956 21.0796