2520
 Atoms. Timestep: 42587
O 7.24997 2.67464 11.6883
Si 9.16327 2.61878 8.63504
Si 5.75534 2.36615 11.0687
O 9.67357 1.0706 8.63356
O 5.96259 1.21137 9.69947
O 5.50708 5.78047 5.90747
Si 7.0482 6.29417 5.67438
Si 4.55684 4.73723 6.78476
O 7.53345 2.73784 8.57816
Si 8.6422 3.57053 5.68854
Si 6.02037 2.22283 8.14921
O 9.42339 3.27065 7.1256
O 8.22835 5.15829 5.68469
O 9.40003 3.25713 93.0052
O 5.26426 3.07261 9.50445
O 5.65893 3.53216 7.20962
O 6.03595 0.978413 7.04894
O 5.14221 5.54829 8.44209
Si 6.14786 6.90037 8.62097
Si 4.21252 4.50655 9.71078
O 6.9698 6.92456 10.0607
O 7.00817 6.97107 7.19977
O 4.72234 3.84324 11.2658
O 3.95337 3.96721 8.15881
O 2.42961 7.33656 11.6883
Si 3.66617 8.79759 8.6349
Si 1.73891 5.97564 11.0687
O 5.19467 8.23101 8.63349
O 2.77094 5.41764 9.69951
O -1.08539 7.9098 5.90762
Si -0.526178 9.43501 5.67456
Si -0.862238 6.51638 6.78488
O 2.55658 7.5979 8.57741
Si 2.59718 8.98361 5.68843
Si 2.01618 6.09349 8.14931
O 3.31883 9.40741 7.12542
O 1.09767 9.64976 5.68478
O 3.31464 9.38069 93.0051
O 0.88034 6.03208 9.50453
O 0.76703 6.6269 7.2097
O 2.99869 5.32963 7.04903
O -1.1314 7.47968 8.44224
Si -1.56148 9.10893 8.62115
Si -0.896514 6.10331 9.71089
O -1.06796 9.76668 10.0609
O -1.08041 9.82568 7.19996
O -0.0600175 6.08853 11.266
O -0.63632 5.56447 8.15892
O -4.22053 6.47313 11.6886
Si -4.59188 8.35094 8.63531
Si -3.58714 5.08466 11.0689
O -3.19613 9.19306 8.63376
O -2.5075 5.54382 9.69963
O -6.86049 4.08262 5.90778
Si -7.70425 5.4708 5.67473
Si -5.63187 3.38836 6.78495
O -4.34527 6.73549 8.57837
Si -5.40377 7.63107 5.68882
Si -3.50643 5.37499 8.1494
O -5.28529 8.45943 7.12587
O -6.85958 6.87418 5.68502
O -5.2669 8.43966 93.0055
O -4.16654 4.44861 9.50463
O -4.70239 4.73106 7.20981
O -2.29673 5.66724 7.04911
O -6.55282 3.77853 8.44236
Si -8.09477 4.45811 8.62131
Si -5.33025 3.10395 9.71097
O -8.30132 5.25407 10.061
O -8.35524 5.2811 7.20012
O -4.79714 3.74871 11.266
O -4.7468 2.97143 8.15898
O -7.69217 0.735838 11.6887
Si -9.39174 1.61633 8.63544
Si -6.21172 0.365307 11.0689
O -9.17982 3.23262 8.63391
O -5.89741 1.49565 9.6997
O -7.46949 -2.81867 5.90783
Si -9.08088 -2.61278 5.67476
Si -6.16067 -2.29096 6.78499
O -7.97493 0.801998 8.57864
Si -9.33523 0.532741 5.68894
Si -6.38831 0.609433 8.14945
O -9.90893 1.14185 7.12602
O -9.65129 -1.07734 5.68509
O -9.88204 1.14394 93.0056
O -6.07576 -0.484262 9.50469
O -6.63078 -0.727058 7.20987
O -5.86247 1.7374 7.04917
O -7.03994 -2.76771 8.44239
Si -8.53265 -3.54954 8.62134
Si -5.75026 -2.2325 9.71101
O -9.28372 -3.21473 10.061
O -9.33847 -3.24002 7.20015
O -5.92187 -1.4137 11.2661
O -5.28283 -1.85902 8.15902
O -5.37147 -5.55563 11.6886
Si -7.11957 -6.33543 8.63535
Si -4.15874 -4.62919 11.0689
O -8.25105 -5.16195 8.63389
O -4.84653 -3.67871 9.69969
O -2.45352 -7.59755 5.90777
Si -3.61915 -8.72903 5.6747
Si -2.05003 -6.24526 6.78495
O -5.59947 -5.73563 8.57832
Si -6.23713 -6.96685 5.68886
Si -4.45973 -4.61506 8.14943
O -7.0711 -7.0356 7.1259
O -5.1753 -8.21776 5.68503
O -7.05589 -7.0133 93.0055
O -3.40974 -5.05257 9.50465
O -3.56587 -5.63781 7.20985
O -5.01372 -3.50066 7.04915
O -2.22551 -7.22994 8.44234
Si -2.54493 -8.88444 8.62128
Si -1.83988 -5.88793 9.71096
O -3.27497 -9.26291 10.061
O -3.28935 -9.32149 7.2001
O -2.58706 -5.51163 11.266
O -1.84044 -5.28961 8.15897
O 0.994463 -7.66358 11.6885
Si 0.514229 -9.51652 8.63527
Si 1.02625 -6.1378 11.0688
O -1.1087 -9.66956 8.6338
O -0.145701 -6.08296 9.69962
O 4.41021 -6.65536 5.90764
Si 4.5681 -8.27216 5.67456
Si 3.60451 -5.49679 6.78484
O 0.992964 -7.95405 8.57835
Si 1.55809 -9.22025 5.68877
Si 0.827544 -6.36433 8.14934
O 1.09189 -9.91514 7.12583
O 3.19813 -9.17002 5.6849
O 1.08391 -9.88936 93.0055
O 1.82425 -5.81619 9.50456
O 2.18448 -6.3032 7.20976
O -0.389149 -6.10269 7.04906
O 4.26496 -6.24792 8.44222
Si 5.35938 -7.5292 8.62114
Si 3.45617 -5.10971 9.71085
O 5.20011 -8.33594 10.0609
O 5.23693 -8.3837 7.19995
O 2.6961 -5.45924 11.2659
O 2.98803 -4.73709 8.15887
O 6.61161 -4.00084 11.6884
Si 7.76094 -5.53156 8.63501
Si 5.4385 -3.02467 11.0687
O 6.86868 -6.89581 8.63362
O 4.66497 -3.90677 9.69951
O 7.95268 -0.701581 5.90752
Si 9.31522 -1.58617 5.67447
Si 6.54454 -0.609089 6.78476
O 6.83806 -4.18295 8.57772
Si 8.18008 -4.53073 5.68853
Si 5.49176 -3.32128 8.14926
O 8.43273 -5.32854 7.12553
O 9.16322 -3.21708 5.68476
O 8.40761 -5.31858 93.0052
O 5.68455 -2.20022 9.50447
O 6.28975 -2.2221 7.20968
O 4.52859 -4.10938 7.04898
O 7.54358 -0.561047 8.44213
Si 9.22768 -0.504309 8.62106
Si 6.14941 -0.483753 9.71077
O 9.75912 -1.13181 10.0608
O 9.81942 -1.13281 7.19987
O 5.94888 -1.29597 11.2659
O 5.56622 -0.617461 8.15879
O 7.24997 2.67464 17.6061
Si 9.16327 2.61878 14.5528
Si 5.75534 2.36615 16.9865
O 9.67357 1.0706 14.5513
O 5.96259 1.21137 15.6172
O 5.50708 5.78047 11.8252
Si 7.0482 6.29417 11.5921
Si 4.55684 4.73723 12.7025
O 7.53345 2.73783 14.4959
Si 8.64219 3.57053 11.6063
Si 6.02037 2.22283 14.067
O 9.42339 3.27065 13.0434
O 8.22834 5.15829 11.6024
O 9.40003 3.25713 10.1567
O 5.26426 3.07261 15.4222
O 5.65893 3.53216 13.1274
O 6.03595 0.978412 12.9667
O 5.14221 5.54829 14.3598
Si 6.14786 6.90037 14.5387
Si 4.21252 4.50655 15.6285
O 6.9698 6.92455 15.9784
O 7.00817 6.97107 13.1175
O 4.72234 3.84324 17.1836
O 3.95336 3.96721 14.0766
O 2.42961 7.33656 17.6061
Si 3.66617 8.79759 14.5527
Si 1.73891 5.97564 16.9865
O 5.19467 8.23101 14.5512
O 2.77093 5.41764 15.6173
O -1.08539 7.9098 11.8254
Si -0.526177 9.43501 11.5923
Si -0.862238 6.51638 12.7026
O 2.55658 7.5979 14.4952
Si 2.59718 8.98361 11.6062
Si 2.01618 6.09349 14.0671
O 3.31883 9.40741 13.0432
O 1.09767 9.64976 11.6025
O 3.31464 9.3807 10.1565
O 0.880339 6.03208 15.4223
O 0.767029 6.6269 13.1275
O 2.99869 5.32963 12.9668
O -1.1314 7.47968 14.36
Si -1.56148 9.10893 14.5389
Si -0.896515 6.10331 15.6286
O -1.06796 9.76668 15.9786
O -1.08041 9.82568 13.1177
O -0.0600179 6.08853 17.1837
O -0.63632 5.56447 14.0767
O -4.22053 6.47313 17.6063
Si -4.59188 8.35094 14.5531
Si -3.58714 5.08466 16.9866
O -3.19613 9.19306 14.5515
O -2.5075 5.54382 15.6174
O -6.86049 4.08262 11.8255
Si -7.70425 5.4708 11.5925
Si -5.63187 3.38836 12.7027
O -4.34527 6.73549 14.4961
Si -5.40377 7.63107 11.6066
Si -3.50643 5.37499 14.0672
O -5.28529 8.45943 13.0436
O -6.85958 6.87418 11.6028
O -5.2669 8.43966 10.157
O -4.16654 4.44861 15.4224
O -4.70239 4.73106 13.1276
O -2.29673 5.66724 12.9669
O -6.55282 3.77853 14.3601
Si -8.09477 4.45811 14.5391
Si -5.33025 3.10395 15.6287
O -8.30132 5.25407 15.9788
O -8.35524 5.2811 13.1179
O -4.79714 3.74871 17.1838
O -4.7468 2.97143 14.0767
O -7.69217 0.735838 17.6064
Si -9.39174 1.61633 14.5532
Si -6.21172 0.365308 16.9867
O -9.17982 3.23262 14.5517
O -5.89741 1.49565 15.6175
O -7.46949 -2.81867 11.8256
Si -9.08088 -2.61278 11.5925
Si -6.16067 -2.29096 12.7027
O -7.97493 0.801999 14.4964
Si -9.33523 0.532741 11.6067
Si -6.38831 0.609433 14.0672
O -9.90893 1.14185 13.0438
O -9.65129 -1.07734 11.6028
O -9.88204 1.14394 10.1571
O -6.07576 -0.484262 15.4224
O -6.63078 -0.727059 13.1276
O -5.86247 1.7374 12.9669
O -7.03994 -2.76771 14.3601
Si -8.53265 -3.54954 14.5391
Si -5.75026 -2.2325 15.6288
O -9.28372 -3.21473 15.9788
O -9.33847 -3.24002 13.1179
O -5.92187 -1.4137 17.1838
O -5.28283 -1.85902 14.0768
O -5.37147 -5.55563 17.6064
Si -7.11957 -6.33543 14.5531
Si -4.15874 -4.62919 16.9867
O -8.25105 -5.16195 14.5516
O -4.84653 -3.67871 15.6174
O -2.45352 -7.59755 11.8255
Si -3.61916 -8.72903 11.5925
Si -2.05003 -6.24526 12.7027
O -5.59947 -5.73563 14.4961
Si -6.23713 -6.96685 11.6066
Si -4.45973 -4.61506 14.0672
O -7.0711 -7.0356 13.0437
O -5.1753 -8.21776 11.6028
O -7.05589 -7.0133 10.157
O -3.40974 -5.05257 15.4224
O -3.56587 -5.63781 13.1276
O -5.01372 -3.50066 12.9669
O -2.22551 -7.22994 14.3601
Si -2.54493 -8.88444 14.539
Si -1.83988 -5.88793 15.6287
O -3.27497 -9.26291 15.9787
O -3.28935 -9.32149 13.1178
O -2.58706 -5.51163 17.1838
O -1.84044 -5.28961 14.0767
O 0.994463 -7.66358 17.6063
Si 0.514228 -9.51652 14.553
Si 1.02625 -6.13781 16.9866
O -1.1087 -9.66956 14.5516
O -0.145701 -6.08296 15.6174
O 4.41021 -6.65536 11.8254
Si 4.5681 -8.27216 11.5923
Si 3.6045 -5.49679 12.7026
O 0.992964 -7.95405 14.4961
Si 1.55809 -9.22025 11.6065
Si 0.827544 -6.36433 14.0671
O 1.09189 -9.91514 13.0436
O 3.19813 -9.17002 11.6027
O 1.08391 -9.88936 10.1569
O 1.82425 -5.81619 15.4223
O 2.18448 -6.3032 13.1275
O -0.389149 -6.10269 12.9668
O 4.26496 -6.24792 14.36
Si 5.35938 -7.5292 14.5389
Si 3.45617 -5.10971 15.6286
O 5.20011 -8.33594 15.9786
O 5.23693 -8.3837 13.1177
O 2.6961 -5.45924 17.1837
O 2.98803 -4.7371 14.0766
O 6.61161 -4.00084 17.6061
Si 7.76094 -5.53156 14.5528
Si 5.4385 -3.02467 16.9865
O 6.86868 -6.89581 14.5514
O 4.66497 -3.90678 15.6173
O 7.95268 -0.701581 11.8253
Si 9.31522 -1.58617 11.5922
Si 6.54454 -0.609089 12.7025
O 6.83806 -4.18295 14.4955
Si 8.18008 -4.53073 11.6063
Si 5.49176 -3.32128 14.067
O 8.43273 -5.32854 13.0433
O 9.16322 -3.21708 11.6025
O 8.40761 -5.31858 10.1567
O 5.68454 -2.20022 15.4222
O 6.28975 -2.2221 13.1274
O 4.52859 -4.10938 12.9667
O 7.54358 -0.561048 14.3599
Si 9.22768 -0.50431 14.5388
Si 6.14941 -0.483754 15.6285
O 9.75912 -1.13181 15.9785
O 9.81942 -1.13281 13.1176
O 5.94888 -1.29597 17.1836
O 5.56621 -0.617461 14.0765
O 7.24997 2.67464 23.5239
Si 9.16326 2.61878 20.4705
Si 5.75534 2.36615 22.9042
O 9.67357 1.0706 20.4691
O 5.96259 1.21137 21.535
O 5.50708 5.78047 17.743
Si 7.0482 6.29417 17.5099
Si 4.55684 4.73722 18.6203
O 7.53345 2.73783 20.4137
Si 8.64219 3.57053 17.524
Si 6.02037 2.22283 19.9847
O 9.42339 3.27065 18.9611
O 8.22834 5.15829 17.5202
O 9.40003 3.25713 16.0744
O 5.26426 3.07261 21.34
O 5.65893 3.53216 19.0451
O 6.03595 0.978411 18.8844
O 5.14221 5.54829 20.2776
Si 6.14786 6.90036 20.4565
Si 4.21252 4.50655 21.5463
O 6.9698 6.92455 21.8962
O 7.00817 6.97107 19.0353
O 4.72234 3.84323 23.1014
O 3.95336 3.9672 19.9943
O 2.42961 7.33656 23.5238
Si 3.66617 8.79759 20.4704
Si 1.73891 5.97563 22.9042
O 5.19467 8.23101 20.469
O 2.77093 5.41764 21.535
O -1.08539 7.9098 17.7431
Si -0.526178 9.43501 17.5101
Si -0.862239 6.51638 18.6204
O 2.55658 7.5979 20.4129
Si 2.59718 8.98361 17.5239
Si 2.01618 6.09349 19.9848
O 3.31883 9.40741 18.9609
O 1.09767 9.64976 17.5203
O 3.31464 9.3807 16.0743
O 0.880339 6.03208 21.34
O 0.767029 6.62691 19.0452
O 2.99869 5.32963 18.8845
O -1.1314 7.47968 20.2777
Si -1.56148 9.10893 20.4567
Si -0.896515 6.10331 21.5464
O -1.06796 9.76668 21.8964
O -1.08041 9.82568 19.0355
O -0.0600184 6.08853 23.1015
O -0.63632 5.56447 19.9944
O -4.22053 6.47312 23.5241
Si -4.59188 8.35094 20.4708
Si -3.58714 5.08466 22.9044
O -3.19613 9.19306 20.4693
O -2.5075 5.54382 21.5351
O -6.86049 4.08262 17.7433
Si -7.70425 5.4708 17.5102
Si -5.63187 3.38836 18.6205
O -4.34527 6.73549 20.4139
Si -5.40377 7.63107 17.5243
Si -3.50644 5.37499 19.9849
O -5.28529 8.45943 18.9614
O -6.85958 6.87418 17.5205
O -5.2669 8.43966 16.0747
O -4.16654 4.44861 21.3401
O -4.70239 4.73106 19.0453
O -2.29673 5.66724 18.8846
O -6.55282 3.77853 20.2779
Si -8.09477 4.45811 20.4568
Si -5.33025 3.10395 21.5465
O -8.30132 5.25407 21.8965
O -8.35524 5.2811 19.0356
O -4.79714 3.74871 23.1015
O -4.7468 2.97143 19.9945
O -7.69217 0.735838 23.5242
Si -9.39174 1.61633 20.4709
Si -6.21173 0.365308 22.9044
O -9.17982 3.23262 20.4694
O -5.89741 1.49565 21.5352
O -7.46949 -2.81867 17.7433
Si -9.08088 -2.61278 17.5103
Si -6.16067 -2.29096 18.6205
O -7.97493 0.801999 20.4142
Si -9.33523 0.532741 17.5245
Si -6.38831 0.609433 19.985
O -9.90893 1.14185 18.9615
O -9.65129 -1.07734 17.5206
O -9.88204 1.14394 16.0749
O -6.07576 -0.484262 21.3402
O -6.63078 -0.727059 19.0454
O -5.86247 1.7374 18.8847
O -7.03994 -2.76771 20.2779
Si -8.53265 -3.54954 20.4568
Si -5.75026 -2.2325 21.5465
O -9.28372 -3.21473 21.8966
O -9.33848 -3.24002 19.0357
O -5.92187 -1.4137 23.1016
O -5.28284 -1.85902 19.9945
O -5.37147 -5.55563 23.5241
Si -7.11957 -6.33543 20.4709
Si -4.15874 -4.62919 22.9044
O -8.25105 -5.16195 20.4694
O -4.84653 -3.67871 21.5352
O -2.45352 -7.59755 17.7433
Si -3.61915 -8.72903 17.5102
Si -2.05003 -6.24526 18.6205
O -5.59947 -5.73563 20.4138
Si -6.23713 -6.96685 17.5244
Si -4.45973 -4.61506 19.9849
O -7.0711 -7.0356 18.9614
O -5.1753 -8.21776 17.5205
O -7.05589 -7.0133 16.0748
O -3.40974 -5.05257 21.3402
O -3.56587 -5.63781 19.0454
O -5.01372 -3.50066 18.8847
O -2.22551 -7.22994 20.2778
Si -2.54493 -8.88444 20.4568
Si -1.83988 -5.88793 21.5465
O -3.27497 -9.26291 21.8965
O -3.28935 -9.32149 19.0356
O -2.58706 -5.51163 23.1016
O -1.84044 -5.28961 19.9945
O 0.994463 -7.66358 23.524
Si 0.514229 -9.51652 20.4708
Si 1.02625 -6.13781 22.9043
O -1.1087 -9.66956 20.4693
O -0.1457 -6.08296 21.5351
O 4.41021 -6.65536 17.7431
Si 4.5681 -8.27216 17.5101
Si 3.60451 -5.49679 18.6203
O 0.992965 -7.95406 20.4138
Si 1.55809 -9.22025 17.5243
Si 0.827544 -6.36433 19.9848
O 1.09189 -9.91514 18.9613
O 3.19813 -9.17002 17.5204
O 1.08391 -9.88936 16.0747
O 1.82425 -5.81619 21.3401
O 2.18448 -6.3032 19.0453
O -0.389149 -6.10269 18.8846
O 4.26496 -6.24792 20.2777
Si 5.35938 -7.5292 20.4567
Si 3.45617 -5.10971 21.5464
O 5.20011 -8.33594 21.8964
O 5.23693 -8.3837 19.0355
O 2.69611 -5.45924 23.1015
O 2.98803 -4.7371 19.9944
O 6.61161 -4.00084 23.5239
Si 7.76094 -5.53156 20.4705
Si 5.4385 -3.02467 22.9042
O 6.86868 -6.89581 20.4691
O 4.66497 -3.90678 21.535
O 7.95268 -0.701582 17.743
Si 9.31522 -1.58617 17.51
Si 6.54454 -0.60909 18.6203
O 6.83806 -4.18295 20.4132
Si 8.18008 -4.53073 17.524
Si 5.49176 -3.32128 19.9848
O 8.43273 -5.32854 18.961
O 9.16322 -3.21708 17.5203
O 8.40761 -5.31858 16.0744
O 5.68455 -2.20022 21.34
O 6.28975 -2.2221 19.0452
O 4.52859 -4.10938 18.8845
O 7.54358 -0.561049 20.2776
Si 9.22768 -0.504311 20.4566
Si 6.14941 -0.483755 21.5463
O 9.75912 -1.13181 21.8963
O 9.81942 -1.13281 19.0354
O 5.94888 -1.29597 23.1014
O 5.56621 -0.617463 19.9943
O 7.24997 2.67464 29.4416
Si 9.16326 2.61878 26.3883
Si 5.75534 2.36615 28.822
O 9.67357 1.0706 26.3868
O 5.96259 1.21137 27.4527
O 5.50708 5.78047 23.6607
Si 7.0482 6.29417 23.4276
Si 4.55684 4.73722 24.538
O 7.53345 2.73783 26.3314
Si 8.64219 3.57053 23.4418
Si 6.02037 2.22283 25.9025
O 9.42338 3.27064 24.8789
O 8.22834 5.15829 23.4379
O 9.40003 3.25713 21.9922
O 5.26426 3.07261 27.2577
O 5.65893 3.53216 24.9629
O 6.03595 0.97841 24.8022
O 5.14221 5.54829 26.1954
Si 6.14786 6.90036 26.3742
Si 4.21252 4.50655 27.464
O 6.9698 6.92455 27.8139
O 7.00817 6.97107 24.953
O 4.72234 3.84323 29.0191
O 3.95336 3.9672 25.9121
O 2.42961 7.33656 29.4416
Si 3.66617 8.79759 26.3882
Si 1.73891 5.97563 28.822
O 5.19467 8.23101 26.3867
O 2.77093 5.41764 27.4528
O -1.08539 7.9098 23.6609
Si -0.526178 9.43501 23.4278
Si -0.862239 6.51638 24.5381
O 2.55659 7.5979 26.3307
Si 2.59718 8.98361 23.4417
Si 2.01618 6.09349 25.9026
O 3.31883 9.40741 24.8787
O 1.09767 9.64976 23.438
O 3.31464 9.3807 21.992
O 0.880339 6.03208 27.2578
O 0.767029 6.62691 24.963
O 2.99869 5.32963 24.8023
O -1.1314 7.47968 26.1955
Si -1.56148 9.10893 26.3744
Si -0.896515 6.1033 27.4642
O -1.06796 9.76668 27.8141
O -1.08041 9.82568 24.9532
O -0.0600179 6.08853 29.0192
O -0.63632 5.56447 25.9122
O -4.22053 6.47312 29.4419
Si -4.59188 8.35094 26.3886
Si -3.58714 5.08466 28.8221
O -3.19613 9.19306 26.387
O -2.5075 5.54381 27.4529
O -6.86049 4.08262 23.661
Si -7.70425 5.4708 23.428
Si -5.63187 3.38836 24.5382
O -4.34527 6.73549 26.3316
Si -5.40377 7.63107 23.4421
Si -3.50644 5.37499 25.9027
O -5.28529 8.45943 24.8791
O -6.85958 6.87418 23.4383
O -5.2669 8.43966 21.9925
O -4.16654 4.44861 27.2579
O -4.70239 4.73106 24.9631
O -2.29673 5.66724 24.8024
O -6.55282 3.77853 26.1956
Si -8.09477 4.45811 26.3746
Si -5.33025 3.10395 27.4642
O -8.30132 5.25407 27.8143
O -8.35524 5.2811 24.9534
O -4.79714 3.74871 29.0193
O -4.7468 2.97143 25.9122
O -7.69217 0.735837 29.4419
Si -9.39175 1.61633 26.3887
Si -6.21173 0.365307 28.8222
O -9.17982 3.23262 26.3872
O -5.89741 1.49565 27.453
O -7.4695 -2.81867 23.6611
Si -9.08088 -2.61278 23.428
Si -6.16067 -2.29096 24.5383
O -7.97493 0.801998 26.3319
Si -9.33523 0.532741 23.4422
Si -6.38831 0.609432 25.9027
O -9.90893 1.14185 24.8793
O -9.65129 -1.07734 23.4383
O -9.88204 1.14394 21.9926
O -6.07576 -0.484262 27.2579
O -6.63078 -0.727059 24.9631
O -5.86247 1.7374 24.8024
O -7.03994 -2.76771 26.1957
Si -8.53265 -3.54954 26.3746
Si -5.75026 -2.2325 27.4643
O -9.28372 -3.21473 27.8143
O -9.33848 -3.24002 24.9534
O -5.92187 -1.4137 29.0193
O -5.28284 -1.85902 25.9123
O -5.37147 -5.55563 29.4419
Si -7.11957 -6.33543 26.3886
Si -4.15874 -4.62919 28.8222
O -8.25105 -5.16195 26.3871
O -4.84653 -3.67871 27.453
O -2.45352 -7.59755 23.661
Si -3.61915 -8.72903 23.428
Si -2.05003 -6.24526 24.5382
O -5.59947 -5.73563 26.3316
Si -6.23713 -6.96685 23.4421
Si -4.45973 -4.61506 25.9027
O -7.0711 -7.0356 24.8792
O -5.1753 -8.21776 23.4383
O -7.05589 -7.0133 21.9925
O -3.40974 -5.05257 27.2579
O -3.56587 -5.63781 24.9631
O -5.01372 -3.50066 24.8024
O -2.22551 -7.22994 26.1956
Si -2.54493 -8.88444 26.3745
Si -1.83988 -5.88793 27.4642
O -3.27497 -9.26291 27.8143
O -3.28935 -9.32149 24.9534
O -2.58706 -5.51163 29.0193
O -1.84044 -5.28961 25.9122
O 0.994463 -7.66358 29.4418
Si 0.514229 -9.51652 26.3885
Si 1.02625 -6.13781 28.8221
O -1.1087 -9.66956 26.3871
O -0.1457 -6.08296 27.4529
O 4.41021 -6.65536 23.6609
Si 4.5681 -8.27216 23.4278
Si 3.60451 -5.49679 24.5381
O 0.992965 -7.95405 26.3316
Si 1.55809 -9.22025 23.442
Si 0.827544 -6.36433 25.9026
O 1.09189 -9.91514 24.8791
O 3.19813 -9.17002 23.4382
O 1.08391 -9.88936 21.9924
O 1.82425 -5.81619 27.2578
O 2.18448 -6.3032 24.963
O -0.389148 -6.10269 24.8023
O 4.26496 -6.24792 26.1955
Si 5.35938 -7.5292 26.3744
Si 3.45617 -5.10971 27.4641
O 5.20011 -8.33594 27.8141
O 5.23693 -8.3837 24.9532
O 2.6961 -5.45924 29.0192
O 2.98803 -4.7371 25.9121
O 6.61161 -4.00084 29.4416
Si 7.76094 -5.53156 26.3883
Si 5.4385 -3.02467 28.822
O 6.86868 -6.89581 26.3869
O 4.66497 -3.90678 27.4528
O 7.95268 -0.701583 23.6608
Si 9.31522 -1.58617 23.4277
Si 6.54454 -0.609091 24.538
O 6.83806 -4.18295 26.331
Si 8.18008 -4.53073 23.4418
Si 5.49176 -3.32128 25.9025
O 8.43273 -5.32854 24.8788
O 9.16322 -3.21708 23.438
O 8.40761 -5.31858 21.9922
O 5.68455 -2.20022 27.2577
O 6.28975 -2.2221 24.9629
O 4.52859 -4.10938 24.8022
O 7.54358 -0.56105 26.1954
Si 9.22768 -0.504312 26.3743
Si 6.14941 -0.483755 27.464
O 9.75912 -1.13181 27.814
O 9.81942 -1.13281 24.9531
O 5.94888 -1.29597 29.0191
O 5.56622 -0.617463 25.912
O 7.24997 2.67464 35.3594
Si 9.16327 2.61878 32.306
Si 5.75534 2.36615 34.7397
O 9.67357 1.0706 32.3046
O 5.96259 1.21137 33.3705
O 5.50708 5.78047 29.5785
Si 7.0482 6.29417 29.3454
Si 4.55684 4.73722 30.4558
O 7.53345 2.73783 32.2492
Si 8.64219 3.57053 29.3596
Si 6.02037 2.22283 31.8202
O 9.42339 3.27065 30.7966
O 8.22834 5.15829 29.3557
O 9.40003 3.25713 27.91
O 5.26426 3.07261 33.1755
O 5.65893 3.53216 30.8806
O 6.03595 0.978411 30.72
O 5.14221 5.54829 32.1131
Si 6.14786 6.90036 32.292
Si 4.21252 4.50655 33.3818
O 6.9698 6.92456 33.7317
O 7.00817 6.97107 30.8708
O 4.72234 3.84324 34.9369
O 3.95337 3.96721 31.8298
O 2.42961 7.33656 35.3593
Si 3.66617 8.79759 32.3059
Si 1.73891 5.97564 34.7398
O 5.19467 8.23101 32.3045
O 2.77094 5.41764 33.3705
O -1.08539 7.90979 29.5786
Si -0.526178 9.43501 29.3456
Si -0.862238 6.51638 30.4559
O 2.55658 7.5979 32.2484
Si 2.59718 8.98361 29.3594
Si 2.01618 6.09349 31.8203
O 3.31883 9.40741 30.7964
O 1.09767 9.64976 29.3558
O 3.31464 9.3807 27.9098
O 0.88034 6.03208 33.1755
O 0.767029 6.6269 30.8807
O 2.99869 5.32963 30.72
O -1.1314 7.47968 32.1132
Si -1.56148 9.10893 32.2922
Si -0.896514 6.1033 33.3819
O -1.06796 9.76668 33.7319
O -1.08041 9.82568 30.871
O -0.060017 6.08853 34.937
O -0.63632 5.56447 31.8299
O -4.22053 6.47312 35.3596
Si -4.59188 8.35094 32.3063
Si -3.58714 5.08466 34.7399
O -3.19613 9.19306 32.3048
O -2.5075 5.54381 33.3706
O -6.86049 4.08262 29.5788
Si -7.70425 5.4708 29.3457
Si -5.63187 3.38836 30.456
O -4.34527 6.73549 32.2494
Si -5.40377 7.63107 29.3598
Si -3.50643 5.37499 31.8204
O -5.28529 8.45943 30.7969
O -6.85958 6.87418 29.356
O -5.2669 8.43966 27.9102
O -4.16654 4.44861 33.1756
O -4.70239 4.73106 30.8808
O -2.29673 5.66724 30.7201
O -6.55282 3.77853 32.1134
Si -8.09477 4.45811 32.2923
Si -5.33025 3.10395 33.382
O -8.30132 5.25406 33.732
O -8.35524 5.2811 30.8711
O -4.79714 3.74871 34.937
O -4.7468 2.97143 31.83
O -7.69217 0.735836 35.3597
Si -9.39174 1.61633 32.3065
Si -6.21173 0.365306 34.74
O -9.17982 3.23261 32.3049
O -5.89741 1.49565 33.3707
O -7.4695 -2.81867 29.5788
Si -9.08088 -2.61278 29.3458
Si -6.16067 -2.29096 30.456
O -7.97493 0.801995 32.2497
Si -9.33523 0.532741 29.36
Si -6.38831 0.609432 31.8205
O -9.90893 1.14185 30.797
O -9.65129 -1.07734 29.3561
O -9.88204 1.14394 27.9104
O -6.07576 -0.484263 33.1757
O -6.63078 -0.727059 30.8809
O -5.86247 1.7374 30.7202
O -7.03994 -2.76771 32.1134
Si -8.53265 -3.54954 32.2924
Si -5.75026 -2.23251 33.382
O -9.28372 -3.21473 33.7321
O -9.33848 -3.24002 30.8712
O -5.92187 -1.4137 34.9371
O -5.28284 -1.85902 31.83
O -5.37147 -5.55563 35.3596
Si -7.11957 -6.33544 32.3064
Si -4.15874 -4.62919 34.7399
O -8.25105 -5.16195 32.3049
O -4.84653 -3.67871 33.3707
O -2.45352 -7.59754 29.5788
Si -3.61915 -8.72903 29.3457
Si -2.05003 -6.24526 30.456
O -5.59947 -5.73563 32.2493
Si -6.23713 -6.96685 29.3599
Si -4.45973 -4.61506 31.8204
O -7.0711 -7.0356 30.7969
O -5.1753 -8.21776 29.356
O -7.05589 -7.0133 27.9103
O -3.40974 -5.05257 33.1757
O -3.56587 -5.63781 30.8809
O -5.01372 -3.50066 30.7202
O -2.2255 -7.22993 32.1134
Si -2.54493 -8.88444 32.2923
Si -1.83987 -5.88793 33.382
O -3.27497 -9.26291 33.732
O -3.28935 -9.32149 30.8711
O -2.58706 -5.51163 34.9371
O -1.84044 -5.28961 31.83
O 0.994463 -7.66358 35.3596
Si 0.514229 -9.51652 32.3063
Si 1.02625 -6.13781 34.7398
O -1.1087 -9.66956 32.3048
O -0.1457 -6.08296 33.3706
O 4.41021 -6.65536 29.5787
Si 4.5681 -8.27216 29.3456
Si 3.60451 -5.49679 30.4559
O 0.992967 -7.95406 32.2494
Si 1.55809 -9.22025 29.3598
Si 0.827544 -6.36433 31.8204
O 1.09189 -9.91514 30.7968
O 3.19813 -9.17002 29.3559
O 1.08391 -9.88936 27.9102
O 1.82425 -5.81619 33.1756
O 2.18448 -6.3032 30.8808
O -0.389148 -6.10269 30.7201
O 4.26496 -6.24792 32.1132
Si 5.35938 -7.5292 32.2922
Si 3.45617 -5.10971 33.3819
O 5.20011 -8.33594 33.7319
O 5.23693 -8.3837 30.871
O 2.6961 -5.45924 34.937
O 2.98803 -4.7371 31.8299
O 6.61161 -4.00084 35.3594
Si 7.76094 -5.53156 32.306
Si 5.4385 -3.02467 34.7397
O 6.86868 -6.89581 32.3046
O 4.66497 -3.90678 33.3705
O 7.95268 -0.701583 29.5785
Si 9.31522 -1.58617 29.3455
Si 6.54454 -0.60909 30.4558
O 6.83806 -4.18295 32.2487
Si 8.18008 -4.53073 29.3595
Si 5.49176 -3.32128 31.8203
O 8.43273 -5.32854 30.7965
O 9.16322 -3.21708 29.3558
O 8.40761 -5.31858 27.9099
O 5.68455 -2.20022 33.1755
O 6.28975 -2.2221 30.8807
O 4.52859 -4.10938 30.72
O 7.54358 -0.561049 32.1131
Si 9.22768 -0.504311 32.2921
Si 6.14941 -0.483754 33.3818
O 9.75912 -1.13181 33.7318
O 9.81942 -1.13281 30.8709
O 5.94888 -1.29597 34.9369
O 5.56622 -0.617462 31.8298
O 7.24998 2.67464 41.2771
Si 9.16327 2.61878 38.2238
Si 5.75534 2.36615 40.6575
O 9.67357 1.0706 38.2223
O 5.96259 1.21137 39.2882
O 5.50708 5.78047 35.4962
Si 7.0482 6.29417 35.2631
Si 4.55684 4.73723 36.3735
O 7.53345 2.73783 38.1669
Si 8.64219 3.57053 35.2773
Si 6.02037 2.22283 37.738
O 9.42339 3.27065 36.7144
O 8.22835 5.15829 35.2735
O 9.40003 3.25713 33.8277
O 5.26426 3.07261 39.0932
O 5.65893 3.53216 36.7984
O 6.03595 0.978412 36.6377
O 5.14221 5.54829 38.0309
Si 6.14786 6.90037 38.2097
Si 4.21252 4.50655 39.2995
O 6.9698 6.92456 39.6495
O 7.00817 6.97107 36.7885
O 4.72234 3.84324 40.8546
O 3.95337 3.96721 37.7476
O 2.42962 7.33656 41.2771
Si 3.66617 8.79759 38.2237
Si 1.73891 5.97564 40.6575
O 5.19467 8.23101 38.2223
O 2.77094 5.41764 39.2883
O -1.08539 7.90979 35.4964
Si -0.526177 9.43501 35.2633
Si -0.862238 6.51637 36.3736
O 2.55658 7.5979 38.1662
Si 2.59718 8.98361 35.2772
Si 2.01619 6.09349 37.7381
O 3.31883 9.40741 36.7142
O 1.09767 9.64976 35.2735
O 3.31464 9.3807 33.8275
O 0.880341 6.03208 39.0933
O 0.76703 6.6269 36.7985
O 2.99869 5.32963 36.6378
O -1.1314 7.47968 38.031
Si -1.56148 9.10893 38.2099
Si -0.896513 6.1033 39.2997
O -1.06796 9.76668 39.6496
O -1.08041 9.82568 36.7887
O -0.0600162 6.08853 40.8547
O -0.636318 5.56446 37.7477
O -4.22053 6.47312 41.2774
Si -4.59188 8.35093 38.2241
Si -3.58714 5.08466 40.6576
O -3.19613 9.19306 38.2225
O -2.5075 5.54381 39.2884
O -6.86049 4.08262 35.4965
Si -7.70425 5.4708 35.2635
Si -5.63187 3.38836 36.3737
O -4.34527 6.73549 38.1671
Si -5.40377 7.63107 35.2776
Si -3.50643 5.37499 37.7382
O -5.28529 8.45942 36.7146
O -6.85957 6.87418 35.2738
O -5.2669 8.43966 33.828
O -4.16654 4.44861 39.0934
O -4.70239 4.73106 36.7986
O -2.29673 5.66724 36.6379
O -6.55282 3.77853 38.0311
Si -8.09477 4.4581 38.2101
Si -5.33025 3.10395 39.2997
O -8.30132 5.25406 39.6498
O -8.35524 5.28109 36.7889
O -4.79714 3.74871 40.8548
O -4.7468 2.97143 37.7477
O -7.69217 0.735836 41.2774
Si -9.39174 1.61633 38.2242
Si -6.21172 0.365305 40.6577
O -9.17982 3.23261 38.2227
O -5.89741 1.49565 39.2885
O -7.46949 -2.81867 35.4966
Si -9.08088 -2.61279 35.2635
Si -6.16067 -2.29096 36.3738
O -7.97493 0.801995 38.1674
Si -9.33523 0.532739 35.2777
Si -6.38831 0.609431 37.7382
O -9.90893 1.14185 36.7148
O -9.65129 -1.07734 35.2739
O -9.88204 1.14394 33.8281
O -6.07576 -0.484264 39.0935
O -6.63078 -0.72706 36.7986
O -5.86247 1.7374 36.6379
O -7.03994 -2.76771 38.0312
Si -8.53265 -3.54954 38.2101
Si -5.75026 -2.23251 39.2998
O -9.28372 -3.21473 39.6498
O -9.33848 -3.24002 36.7889
O -5.92187 -1.4137 40.8549
O -5.28284 -1.85902 37.7478
O -5.37147 -5.55563 41.2774
Si -7.11957 -6.33544 38.2241
Si -4.15874 -4.62919 40.6577
O -8.25105 -5.16195 38.2227
O -4.84653 -3.67871 39.2885
O -2.45352 -7.59754 35.4965
Si -3.61915 -8.72903 35.2635
Si -2.05003 -6.24526 36.3737
O -5.59947 -5.73563 38.1671
Si -6.23713 -6.96685 35.2776
Si -4.45973 -4.61507 37.7382
O -7.0711 -7.0356 36.7147
O -5.1753 -8.21776 35.2738
O -7.05589 -7.0133 33.828
O -3.40974 -5.05257 39.0934
O -3.56587 -5.63781 36.7986
O -5.01372 -3.50066 36.6379
O -2.2255 -7.22994 38.0311
Si -2.54493 -8.88444 38.21
Si -1.83987 -5.88793 39.2997
O -3.27497 -9.26291 39.6498
O -3.28935 -9.32149 36.7889
O -2.58706 -5.51163 40.8548
O -1.84044 -5.28961 37.7477
O 0.994464 -7.66358 41.2773
Si 0.51423 -9.51652 38.224
Si 1.02625 -6.1378 40.6576
O -1.1087 -9.66956 38.2226
O -0.1457 -6.08296 39.2884
O 4.41021 -6.65536 35.4964
Si 4.5681 -8.27216 35.2633
Si 3.60451 -5.49679 36.3736
O 0.992968 -7.95406 38.1671
Si 1.55809 -9.22025 35.2775
Si 0.827544 -6.36433 37.7381
O 1.09189 -9.91514 36.7146
O 3.19813 -9.17002 35.2737
O 1.08391 -9.88936 33.8279
O 1.82425 -5.81619 39.0933
O 2.18448 -6.3032 36.7985
O -0.389148 -6.10269 36.6378
O 4.26496 -6.24792 38.031
Si 5.35938 -7.5292 38.2099
Si 3.45617 -5.10971 39.2996
O 5.20011 -8.33594 39.6496
O 5.23693 -8.3837 36.7887
O 2.6961 -5.45924 40.8547
O 2.98803 -4.73709 37.7476
O 6.61161 -4.00084 41.2771
Si 7.76094 -5.53156 38.2238
Si 5.4385 -3.02467 40.6575
O 6.86868 -6.89581 38.2224
O 4.66497 -3.90677 39.2883
O 7.95268 -0.701582 35.4963
Si 9.31522 -1.58617 35.2632
Si 6.54454 -0.609089 36.3735
O 6.83806 -4.18295 38.1665
Si 8.18008 -4.53073 35.2773
Si 5.49176 -3.32128 37.738
O 8.43273 -5.32854 36.7143
O 9.16322 -3.21708 35.2735
O 8.40761 -5.31858 33.8277
O 5.68455 -2.20022 39.0932
O 6.28975 -2.2221 36.7984
O 4.52859 -4.10938 36.6377
O 7.54358 -0.561047 38.0309
Si 9.22768 -0.50431 38.2098
Si 6.14941 -0.483753 39.2995
O 9.75912 -1.13181 39.6495
O 9.81942 -1.13281 36.7886
O 5.94888 -1.29597 40.8546
O 5.56622 -0.617461 37.7476
O 7.24998 2.67464 47.1949
Si 9.16327 2.61878 44.1416
Si 5.75534 2.36615 46.5752
O 9.67357 1.0706 44.1401
O 5.96259 1.21137 45.206
O 5.50708 5.78048 41.414
Si 7.0482 6.29417 41.1809
Si 4.55684 4.73723 42.2913
O 7.53345 2.73783 44.0847
Si 8.6422 3.57053 41.1951
Si 6.02037 2.22283 43.6557
O 9.42339 3.27065 42.6321
O 8.22835 5.15829 41.1912
O 9.40003 3.25713 39.7455
O 5.26426 3.07261 45.011
O 5.65893 3.53216 42.7161
O 6.03595 0.978413 42.5555
O 5.14221 5.54829 43.9486
Si 6.14786 6.90037 44.1275
Si 4.21252 4.50655 45.2173
O 6.9698 6.92456 45.5672
O 7.00817 6.97107 42.7063
O 4.72234 3.84324 46.7724
O 3.95337 3.96721 43.6653
O 2.42962 7.33656 47.1948
Si 3.66617 8.79759 44.1414
Si 1.73891 5.97564 46.5753
O 5.19467 8.23101 44.14
O 2.77094 5.41764 45.206
O -1.08539 7.90979 41.4141
Si -0.526177 9.43501 41.1811
Si -0.862237 6.51637 42.2914
O 2.55658 7.5979 44.0839
Si 2.59718 8.98361 41.1949
Si 2.01619 6.09349 43.6558
O 3.31883 9.40741 42.6319
O 1.09767 9.64976 41.1913
O 3.31464 9.3807 39.7453
O 0.880341 6.03208 45.011
O 0.767031 6.6269 42.7162
O 2.99869 5.32963 42.5555
O -1.1314 7.47968 43.9488
Si -1.56148 9.10893 44.1277
Si -0.896513 6.1033 45.2174
O -1.06796 9.76668 45.5674
O -1.0804 9.82568 42.7065
O -0.0600159 6.08853 46.7725
O -0.636318 5.56446 43.6654
O -4.22053 6.47312 47.1951
Si -4.59188 8.35093 44.1418
Si -3.58714 5.08466 46.5754
O -3.19613 9.19306 44.1403
O -2.5075 5.54381 45.2061
O -6.86049 4.08262 41.4143
Si -7.70425 5.47079 41.1812
Si -5.63187 3.38836 42.2915
O -4.34527 6.73549 44.0849
Si -5.40377 7.63107 41.1953
Si -3.50643 5.37498 43.6559
O -5.28529 8.45942 42.6324
O -6.85957 6.87418 41.1915
O -5.2669 8.43966 39.7457
O -4.16654 4.44861 45.0112
O -4.70239 4.73106 42.7163
O -2.29673 5.66724 42.5556
O -6.55282 3.77853 43.9489
Si -8.09477 4.4581 44.1278
Si -5.33025 3.10395 45.2175
O -8.30132 5.25406 45.5675
O -8.35524 5.28109 42.7066
O -4.79714 3.74871 46.7726
O -4.7468 2.97143 43.6655
O -7.69217 0.735835 47.1952
Si -9.39174 1.61633 44.142
Si -6.21173 0.365305 46.5755
O -9.17982 3.23261 44.1404
O -5.89741 1.49565 45.2062
O -7.4695 -2.81867 41.4143
Si -9.08088 -2.61279 41.1813
Si -6.16067 -2.29096 42.2915
O -7.97493 0.801996 44.0852
Si -9.33523 0.532739 41.1955
Si -6.38831 0.60943 43.656
O -9.90893 1.14185 42.6325
O -9.65129 -1.07734 41.1916
O -9.88204 1.14393 39.7459
O -6.07576 -0.484265 45.0112
O -6.63078 -0.727061 42.7164
O -5.86247 1.7374 42.5557
O -7.03994 -2.76771 43.9489
Si -8.53265 -3.54954 44.1279
Si -5.75026 -2.23251 45.2175
O -9.28372 -3.21473 45.5676
O -9.33848 -3.24002 42.7067