2688
 Atoms. Timestep: 62359
O 5.41721 -7.88866 3.19876
Si 6.50329 -9.11902 3.06834
Si 4.53497 -6.55971 2.78521
O 8.74578 -4.25698 0.684503
Si 9.88306 -5.38213 0.91263
Si 7.33357 -3.79462 1.31006
O 6.79335 -7.00207 -0.142506
Si 8.00876 -7.88807 0.538587
Si 5.59227 -5.87865 -0.0513632
O 7.39368 -8.89934 1.69672
O 9.24554 -6.89342 1.01806
O 8.62421 -8.85359 -0.638181
O 4.5732 -6.27748 1.17406
O 6.12256 -4.4454 0.494804
O 5.08787 -5.46642 85.7673
O 9.48423 -3.15057 3.58375
Si 10.9843 -3.76225 3.29036
Si 7.98361 -3.25856 4.2991
O 11.0014 -4.87829 4.51307
O 11.632 -2.21364 3.17501
O 10.9473 -4.71604 1.95391
O 7.97273 -2.57622 5.92128
O 7.41704 -1.90534 3.5027
O 7.2469 -3.84938 2.92666
O 4.51356 -7.45628 7.83673
Si 5.59699 -8.67425 7.67772
Si 4.23349 -5.84701 8.02581
O 8.83086 -4.36914 5.72082
Si 10.0378 -5.50467 5.70091
Si 7.76823 -3.7423 7.19765
O 6.45189 -6.75018 5.35739
Si 7.73918 -7.75026 5.59756
Si 5.68688 -5.30306 5.32011
O 7.04784 -8.42969 6.9471
O 9.21513 -6.96313 5.6394
O 7.49897 -8.81572 4.35421
O 4.66791 -5.18214 6.59311
O 6.85229 -4.18654 5.54627
O 5.04684 -5.40119 3.82129
O 9.00932 -3.93596 8.27006
Si 10.6507 -4.02499 8.33918
Si 5.29877 -2.68704 8.65206
O 11.291 -4.53224 9.74949
O 11.0084 -2.46172 7.96077
O 10.7873 -5.10626 7.10854
O 3.89727 -3.0659 9.37291
O 5.86907 -1.19214 8.41372
O 6.36649 -3.73488 8.05191
O 9.54512 -0.682903 3.19816
Si 11.1842 -0.600867 3.06779
Si 7.95604 -0.544073 2.78464
O 8.78123 4.18395 0.684071
Si 10.37 4.37158 0.912251
Si 7.53923 3.36813 1.30959
O 9.71003 0.945971 -0.143019
Si 11.1605 1.34374 0.538136
Si 8.08285 0.707377 -0.0518891
O 11.5676 0.232272 1.69621
O 11.154 2.93085 1.01763
O 12.2991 1.22296 -0.638665
O 7.75923 -0.338081 1.17349
O 7.29296 2.01561 0.494278
O 7.44604 0.570016 85.7668
O 8.37659 5.45101 3.58331
Si 9.79008 6.24245 3.29002
Si 7.52539 4.21046 4.29866
O 10.6733 5.55995 4.51272
O 8.9832 7.71444 3.17477
O 10.5127 5.61888 1.95356
O 6.98511 4.62734 5.92083
O 6.11412 4.61128 3.50235
O 7.52798 3.26618 2.92618
O 8.64367 -1.1198 7.83624
Si 10.2714 -1.03212 7.67725
Si 7.21086 -0.335402 8.02531
O 8.92191 4.18036 5.72035
Si 10.5622 4.41595 5.70048
Si 7.76926 3.74037 7.19719
O 9.30019 0.835845 5.35683
Si 10.8847 1.21874 5.59702
Si 7.69178 1.14002 5.3196
O 10.9849 0.254587 6.94653
O 11.1896 2.86345 5.63885
O 11.5679 0.366609 4.35369
O 6.96187 0.418807 6.5926
O 7.54552 2.74733 5.5458
O 7.36949 0.578442 3.82075
O 8.69452 4.58986 8.26965
Si 9.78761 5.8176 8.33883
Si 5.40464 2.4678 8.65194
O 10.5834 6.00171 9.74914
O 8.78847 7.072 7.96054
O 10.7181 5.25028 7.10817
O 4.82703 1.13586 9.3728
O 4.59153 3.84582 8.41388
O 6.88948 2.64909 8.05147
O 6.48528 7.03726 3.19796
Si 7.44307 8.3699 3.0676
Si 5.38588 5.88148 2.78445
O 2.20379 9.47454 0.684173
Si 3.04766 10.8337 0.912356
Si 2.06726 7.9948 1.30961
O 5.31441 8.18192 -0.14311
Si 5.9078 9.56395 0.538062
Si 4.48643 6.76097 -0.0520063
O 7.03068 9.18915 1.69605
O 4.66292 10.5484 1.01771
O 6.71209 10.3789 -0.638708
O 5.10209 5.85611 1.17332
O 2.97112 6.95904 0.494176
O 4.1969 6.17744 85.7667
O 0.961014 9.94803 3.58344
Si 1.22349 11.5466 3.29024
Si 1.40026 8.50906 4.29875
O 2.30783 11.8116 4.51288
O -0.430449 11.8335 3.17509
O 2.16151 11.7229 1.95373
O 0.737547 8.34653 5.92095
O 0.206926 7.65557 3.50256
O 2.14006 7.92237 2.9262
O 6.2649 6.06011 7.83629
Si 7.2113 7.38734 7.67716
Si 4.75828 5.42899 8.02529
O 2.29457 9.5821 5.72045
Si 3.13305 11.0115 5.70058
Si 1.91996 8.40657 7.19726
O 5.14527 7.79264 5.35676
Si 5.83383 9.27019 5.59697
Si 3.90463 6.72477 5.31955
O 6.65015 8.74738 6.94645
O 4.738 10.534 5.63886
O 6.92596 9.27308 4.35355
O 4.0135 5.7044 6.5925
O 2.55679 7.61252 5.54582
O 4.14262 6.12274 3.82065
O 1.83269 9.65958 8.26975
Si 1.55436 11.2797 8.33901
Si 1.44051 5.76448 8.65222
O 1.90665 12.0166 9.74932
O -0.0493364 11.2807 7.96078
O 2.57803 11.6535 7.10832
O 2.12178 4.48245 9.37312
O -0.143864 5.98797 8.41439
O 2.22456 7.03832 8.05154
O -1.45843 9.45831 3.19833
Si -1.90314 11.038 3.06796
Si -1.24026 7.87816 2.78478
O -6.03349 7.6305 0.684617
Si -6.56994 9.13766 0.912841
Si -4.96166 6.60119 1.31003
O -3.08346 9.25658 -0.142738
Si -3.79398 10.5822 0.53847
Si -2.48873 7.72329 -0.051657
O -2.80084 11.2264 1.69646
O -5.33978 10.2226 1.01816
O -3.92973 11.7191 -0.638281
O -1.39741 7.64045 1.17366
O -3.58838 6.66207 0.494509
O -2.21298 7.13317 85.767
O -7.17833 6.95406 3.58396
Si -8.26456 8.15594 3.29079
Si -5.77942 6.4003 4.29921
O -7.79563 9.1689 4.51344
O -9.52004 7.0417 3.17567
O -7.81761 8.99925 1.95429
O -6.06551 5.78079 5.9214
O -5.85618 4.93512 3.50311
O -4.85955 6.61292 2.92661
O -0.831711 8.67681 7.83676
Si -1.2793 10.2443 7.67755
Si -1.27769 7.1054 8.02573
O -6.06077 7.76849 5.72094
Si -6.65552 9.31523 5.70112
Si -5.37521 6.74264 7.19773
O -2.88436 8.88162 5.35718
Si -3.61026 10.3412 5.59739
Si -2.82297 7.24585 5.31996
O -2.69251 10.6535 6.94685
O -5.28157 10.2724 5.63938
O -2.93167 11.1969 4.35394
O -1.95729 6.69482 6.5929
O -4.35739 6.74553 5.54624
O -2.20393 7.05653 3.82105
O -6.40924 7.45563 8.27028
Si -7.84945 8.24812 8.33958
Si -3.60845 4.72047 8.65263
O -8.20588 8.98302 9.74992
O -8.85013 6.99492 7.96139
O -7.50352 9.28157 7.10888
O -2.18137 4.45379 9.37354
O -4.77101 3.6211 8.41484
O -4.11553 6.1277 8.05198
O -8.30394 4.75709 3.19887
Si -9.81631 5.39433 3.06854
Si -6.93252 3.94243 2.78535
O -9.72746 0.0405842 0.685132
Si -11.2403 0.560908 0.913355
Si -8.25443 0.236767 1.31052
O -9.15941 3.36088 -0.142205
Si -10.6388 3.63187 0.539007
Si -7.58985 2.86983 -0.0511149
O -10.5233 4.80997 1.69702
O -11.3215 2.19917 1.01866
O -11.6123 4.23462 -0.637748
O -6.84464 3.67136 1.17422
O -7.44579 1.34842 0.495027
O -6.95652 2.71747 85.7676
O -9.91242 -1.27632 3.58449
Si -11.5293 -1.37613 3.29128
Si -8.60724 -0.527869 4.2997
O -12.0289 -0.377951 4.51396
O -11.441 -3.05244 3.17607
O -11.91 -0.500882 1.95478
O -8.30125 -1.13784 5.92186
O -7.50964 -1.5014 3.50351
O -8.19997 0.323896 2.9271
O -7.30214 4.75975 7.83728
Si -8.80667 5.38711 7.67809
Si -6.35159 3.43134 8.02624
O -9.85233 0.105201 5.72146
Si -11.4324 0.604615 5.70166
Si -8.62285 0.00149852 7.19824
O -8.7421 3.28264 5.35772
Si -10.3358 3.62516 5.59797
Si -7.42495 2.31073 5.32051
O -10.0077 4.53739 6.94742
O -11.3241 2.27558 5.63994
O -10.5817 4.6892 4.35451
O -6.45438 2.64394 6.59345
O -7.99049 0.799135 5.54676
O -6.89099 2.67671 3.8216
O -9.82498 -0.362444 8.27078
Si -11.3425 -0.994305 8.34003
Si -5.94027 0.121862 8.65307
O -12.1393 -0.814838 9.75037
O -10.9868 -2.55803 7.96176
O -11.9348 -0.0794309 7.10939
O -4.84184 1.07125 9.37386
O -5.80566 -1.4725 8.4151
O -7.35664 0.602895 8.05249
O -8.89663 -3.52616 3.19922
Si -10.3378 -4.31122 3.06887
Si -7.40466 -2.96181 2.78569
O -6.09671 -7.57968 0.685307
Si -7.44675 -8.43802 0.913498
Si -5.33164 -6.30574 1.31074
O -8.33841 -5.06535 -0.141923
Si -9.47269 -6.05302 0.539249
Si -6.97587 -4.14439 -0.0508119
O -10.3217 -5.22821 1.6973
O -8.77825 -7.48012 1.01884
O -10.5509 -6.43823 -0.637549
O -7.13794 -3.06206 1.17456
O -5.69659 -4.98036 0.495342
O -6.4618 -3.74425 85.7679
O -5.18242 -8.54553 3.58461
Si -6.11255 -9.87189 3.29133
Si -4.95379 -7.05847 4.29988
O -7.20439 -9.64018 4.51405
O -4.74689 -10.848 3.17606
O -7.03418 -9.62368 1.95486
O -4.28615 -7.19957 5.92206
O -3.50839 -6.80722 3.50355
O -5.36582 -6.2089 2.92732
O -8.27412 -2.74135 7.83746
Si -9.70267 -3.52652 7.67837
Si -6.64288 -2.8265 8.02652
O -6.22507 -7.63725 5.72162
Si -7.6007 -8.56125 5.70177
Si -5.3775 -6.74067 7.19841
O -8.01709 -4.78816 5.35801
Si -9.27856 -5.82062 5.59821
Si -6.436 -4.36431 5.32076
O -9.78721 -4.99538 6.94768
O -8.83957 -7.43472 5.6401
O -10.2638 -5.34938 4.35478
O -6.09133 -3.39782 6.59376
O -5.6068 -5.74893 5.54698
O -6.3892 -3.7186 3.82188
O -5.84248 -7.90745 8.27093
Si -6.29455 -9.48789 8.34014
Si -3.79913 -4.56801 8.65287
O -6.93157 -9.99911 9.75046
O -4.85009 -10.1845 7.96171
O -7.37912 -9.38051 7.1095
O -3.85661 -3.11741 9.37388
O -2.46864 -5.45668 8.41447
O -5.05832 -5.37572 8.05264
O -2.79032 -9.15396 3.19905
Si -3.0749 -10.7702 3.06877
Si -2.30119 -7.63565 2.78555
O 2.12463 -9.49225 0.685048
Si 1.95403 -11.0829 0.913172
Si 1.60563 -8.09985 1.31059
O -1.23881 -9.67725 -0.142075
Si -1.1738 -11.1799 0.539078
Si -1.10934 -8.03777 -0.0509625
O -2.348 -11.3294 1.69717
O 0.374946 -11.5267 1.01858
O -1.545 -12.2631 -0.637667
O -2.0566 -7.48966 1.1744
O 0.341849 -7.5588 0.495245
O -1.10157 -7.38637 85.7678
O 3.45002 -9.37971 3.58435
Si 3.907 -10.9339 3.29098
Si 2.42997 -8.27379 4.29963
O 3.04507 -11.6431 4.51366
O 5.52161 -10.4747 3.17563
O 3.1383 -11.4996 1.95449
O 2.95658 -7.83986 5.92181
O 3.13465 -6.98707 3.50326
O 1.50873 -8.06625 2.92717
O -3.01559 -8.17774 7.83696
Si -3.29236 -9.78421 7.67805
Si -1.93199 -6.95547 8.02609
O 2.08981 -9.62863 5.72132
Si 1.95454 -11.2802 5.70147
Si 1.91732 -8.40693 7.19816
O -1.255 -9.25316 5.35782
Si -1.23426 -10.8831 5.59802
Si -0.60054 -7.75276 5.3205
O -2.19664 -10.7662 6.94746
O 0.301359 -11.5463 5.63992
O -2.217 -11.3596 4.35464
O -1.14131 -6.88057 6.59341
O 0.999009 -7.96785 5.54674
O -1.07626 -7.31362 3.82161
O 2.53972 -9.49799 8.27059
Si 3.49356 -10.8368 8.33972
Si 1.20272 -5.81828 8.65261
O 3.49622 -11.6536 9.75004
O 4.93877 -10.1417 7.96131
O 2.73337 -11.6178 7.10912
O 0.0326382 -4.95869 9.3733
O 2.72707 -5.33213 8.41427
O 1.04914 -7.30637 8.05242
O 5.41677 -7.88909 14.1137
Si 6.50327 -9.11905 13.9833
Si 4.53484 -6.55994 13.7001
O 8.7456 -4.25687 11.5998
Si 9.88292 -5.38199 11.8279
Si 7.33339 -3.79453 12.2253
O 6.79355 -7.00194 10.7725
Si 8.00886 -7.88804 11.4537
Si 5.59235 -5.87864 10.8637
O 7.39347 -8.89938 12.6115
O 9.24551 -6.89334 11.9334
O 8.62449 -8.8534 10.2769
O 4.5732 -6.27778 12.089
O 6.12243 -4.4454 11.4101
O 5.08789 -5.4663 9.36205
O 9.48446 -3.15034 14.4991
Si 10.9844 -3.76217 14.2056
Si 7.98378 -3.25844 15.2143
O 11.0015 -4.87823 15.4283
O 11.6321 -2.21353 14.0902
O 10.9473 -4.71597 12.8691
O 7.97275 -2.57631 16.8365
O 7.41716 -1.90527 14.4178
O 7.24686 -3.84917 13.8419
O 4.51333 -7.45623 18.7511
Si 5.59681 -8.67421 18.5924
Si 4.2334 -5.84695 18.9403
O 8.83093 -4.3692 16.6359
Si 10.0379 -5.50472 16.616
Si 7.76812 -3.7425 18.1128
O 6.45207 -6.75026 16.2722
Si 7.73928 -7.75036 16.5125
Si 5.68704 -5.30313 16.2348
O 7.04772 -8.42984 17.8619
O 9.21523 -6.96319 16.5544
O 7.49904 -8.81573 15.269
O 4.66794 -5.18204 17.5076
O 6.85239 -4.18661 16.4612
O 5.04707 -5.40143 14.736
O 9.00915 -3.93619 19.1852
Si 10.6506 -4.02518 19.2544
Si 5.29882 -2.68704 19.5673
O 11.2908 -4.53236 20.6647
O 11.0083 -2.46196 18.8759
O 10.7873 -5.10638 18.0237
O 3.89718 -3.06573 20.2879
O 5.86917 -1.19218 19.3288
O 6.36639 -3.73499 18.967
O 9.54517 -0.682805 14.1132
Si 11.1843 -0.600769 13.9828
Si 7.95606 -0.543986 13.6998
O 8.78108 4.18389 11.5991
Si 10.3698 4.3716 11.8272
Si 7.53912 3.36804 12.2247
O 9.70991 0.945981 10.772
Si 11.1605 1.34377 11.453
Si 8.08273 0.707337 10.8632
O 11.5676 0.232318 12.6111
O 11.1539 2.93086 11.9326
O 12.299 1.22293 10.2762
O 7.75922 -0.338085 12.0887
O 7.29282 2.01557 11.4093
O 7.44591 0.569897 9.36155
O 8.37649 5.45104 14.4984
Si 9.79002 6.24242 14.2051
Si 7.5253 4.21047 15.2137
O 10.6733 5.55992 15.4278
O 8.98318 7.71443 14.0898
O 10.5127 5.61886 12.8686
O 6.98509 4.62737 16.8359
O 6.11406 4.61126 14.4174
O 7.52789 3.2661 13.8413
O 8.64369 -1.11998 18.7512
Si 10.2715 -1.03234 18.5922
Si 7.21097 -0.335487 18.9404
O 8.92188 4.18038 16.6355
Si 10.5622 4.416 16.6156
Si 7.76923 3.74042 18.1123
O 9.30022 0.835836 16.272
Si 10.8847 1.21876 16.5121
Si 7.6918 1.14005 16.2348
O 10.9849 0.25443 17.8615
O 11.1896 2.86349 16.5541
O 11.5679 0.366745 15.2687
O 6.96194 0.418873 17.5078
O 7.54548 2.74736 16.4609
O 7.36945 0.578483 14.7359
O 8.69445 4.58999 19.1847
Si 9.78759 5.81771 19.2539
Si 5.40463 2.46786 19.5671
O 10.5834 6.0018 20.6643
O 8.78843 7.07212 18.8757
O 10.7181 5.25041 18.0232
O 4.82697 1.13583 20.2878
O 4.59149 3.84587 19.329
O 6.88947 2.64915 18.9666
O 6.48518 7.03729 14.1131
Si 7.44307 8.36988 13.9827
Si 5.38584 5.88147 13.6995
O 2.20374 9.47457 11.5992
Si 3.04764 10.8337 11.8274
Si 2.06723 7.99483 12.2246
O 5.31438 8.18193 10.7719
Si 5.90782 9.56394 11.4531
Si 4.4864 6.76097 10.863
O 7.03069 9.18915 12.6111
O 4.66291 10.5484 11.9327
O 6.71211 10.3789 10.2764
O 5.10205 5.8561 12.0884
O 2.97107 6.95907 11.4091
O 4.19689 6.17746 9.36133
O 0.96102 9.948 14.4985
Si 1.22345 11.5466 14.2053
Si 1.40028 8.50903 15.2138
O 2.30778 11.8116 15.4279
O -0.430467 11.8335 14.0901
O 2.1615 11.7229 12.8688
O 0.737538 8.34651 16.836
O 0.20694 7.6555 14.4176
O 2.14003 7.92234 13.8412
O 6.26486 6.06016 18.7514
Si 7.21125 7.38741 18.5923
Si 4.75825 5.42903 18.9404
O 2.29456 9.58208 16.6355
Si 3.13304 11.0115 16.6156
Si 1.91994 8.4065 18.1123
O 5.14528 7.79265 16.2718
Si 5.83382 9.27021 16.512
Si 3.90465 6.72475 16.2346
O 6.65006 8.74743 17.8615
O 4.73799 10.534 16.5539
O 6.92594 9.27312 15.2686
O 4.01351 5.7044 17.5076
O 2.55679 7.6125 16.4609
O 4.14259 6.12267 14.7357
O 1.83274 9.65951 19.1848
Si 1.55437 11.2796 19.2541
Si 1.44052 5.76439 19.5672
O 1.90668 12.0165 20.6644
O -0.0493294 11.2806 18.8759
O 2.57801 11.6535 18.0234
O 2.12181 4.48241 20.2882
O -0.143851 5.98787 19.3294
O 2.22456 7.03822 18.9665
O -1.45846 9.45826 14.1134
Si -1.90316 11.038 13.983
Si -1.24026 7.8781 13.6999
O -6.03346 7.63048 11.5997
Si -6.56989 9.13765 11.8279
Si -4.96163 6.60114 12.2251
O -3.08341 9.25657 10.7723
Si -3.79395 10.5822 11.4535
Si -2.48871 7.72328 10.8634
O -2.80085 11.2264 12.6115
O -5.33975 10.2226 11.9332
O -3.92968 11.7191 10.2768
O -1.3974 7.6404 12.0887
O -3.58834 6.66206 11.4096
O -2.21296 7.13317 9.36171
O -7.17831 6.95404 14.499
Si -8.26453 8.15594 14.2058
Si -5.77942 6.40025 15.2142
O -7.7956 9.16888 15.4285
O -9.52005 7.04172 14.0906
O -7.81757 8.99925 12.8693
O -6.06554 5.78073 16.8364
O -5.8562 4.93508 14.4181
O -4.85953 6.61287 13.8417
O -0.83169 8.6767 18.7519
Si -1.27927 10.2441 18.5926
Si -1.27766 7.1053 18.9408
O -6.06078 7.76844 16.636
Si -6.65552 9.31517 16.6162
Si -5.37528 6.74253 18.1128
O -2.88434 8.88153 16.2723
Si -3.61024 10.3411 16.5125
Si -2.82297 7.24577 16.235
O -2.69248 10.6534 17.8619
O -5.28156 10.2723 16.5545
O -2.93166 11.1968 15.269
O -1.95727 6.69474 17.508
O -4.3574 6.74546 16.4613
O -2.20396 7.05647 14.7361
O -6.40929 7.45553 19.1853
Si -7.84948 8.24802 19.2546
Si -3.60853 4.72025 19.5676
O -8.20594 8.98292 20.665
O -8.8502 6.99487 18.8764
O -7.5035 9.28148 18.024
O -2.18155 4.45356 20.2887
O -4.77115 3.62092 19.3299
O -4.11558 6.12752 18.967
O -8.30399 4.75707 14.1138
Si -9.81635 5.39435 13.9835
Si -6.93254 3.94241 13.7004
O -9.72766 0.0406213 11.6001
Si -11.2404 0.560975 11.8282
Si -8.25465 0.236777 12.2255
O -9.15937 3.36087 10.7728
Si -10.6388 3.63189 11.4539
Si -7.58982 2.86977 10.8639
O -10.5233 4.81 12.6119
O -11.3216 2.19922 11.9335
O -11.6122 4.23465 10.2771
O -6.84463 3.67131 12.0892
O -7.44591 1.34834 11.41
O -6.95639 2.71742 9.36225
O -9.91252 -1.27619 14.4994
Si -11.5294 -1.37599 14.2062
Si -8.60735 -0.52781 15.2147
O -12.0291 -0.377842 15.4289
O -11.441 -3.0523 14.0911
O -11.9101 -0.500766 12.8697
O -8.30147 -1.13781 16.8369
O -7.5096 -1.50137 14.4188
O -8.20018 0.324003 13.8421
O -7.30226 4.75967 18.7523
Si -8.80677 5.38707 18.5931
Si -6.35175 3.43124 18.9413
O -9.85253 0.105254 16.6365
Si -11.4326 0.604674 16.6166
Si -8.62308 0.00159116 18.1132
O -8.74222 3.28265 16.2727
Si -10.3359 3.62518 16.5129
Si -7.42507 2.31073 16.2355
O -10.0079 4.53741 17.8623
O -11.3242 2.27562 16.5549
O -10.5818 4.68925 15.2694
O -6.45453 2.6439 17.5085
O -7.99067 0.799163 16.4618
O -6.89101 2.67669 14.7366
O -9.82522 -0.362265 19.1857
Si -11.3428 -0.994162 19.2551
Si -5.9405 0.122222 19.5681
O -12.1396 -0.814654 20.6654
O -10.9868 -2.5579 18.8769
O -11.935 -0.079351 18.0244
O -4.84224 1.07178 20.2889
O -5.80574 -1.47218 19.3302
O -7.35695 0.6031 18.9675
O -8.89659 -3.52595 14.1145
Si -10.3378 -4.31106 13.9841
Si -7.40454 -2.96178 13.7009
O -6.09659 -7.57958 11.6004
Si -7.44666 -8.43789 11.8285
Si -5.33151 -6.30565 12.2258
O -8.33849 -5.06528 10.7733
Si -9.47275 -6.05297 11.4545
Si -6.97592 -4.14437 10.8644
O -10.3218 -5.22822 12.6126
O -8.7782 -7.48005 11.934
O -10.5511 -6.43819 10.2779
O -7.13779 -3.06203 12.0898
O -5.69657 -4.9803 11.4104
O -6.46192 -3.74435 9.36263
O -5.18239 -8.5457 14.4998
Si -6.1126 -9.87195 14.2063
Si -4.95377 -7.05854 15.2149
O -7.20455 -9.6401 15.429
O -4.74701 -10.8482 14.0909
O -7.03416 -9.62363 12.8698
O -4.28615 -7.19983 16.8371
O -3.50844 -6.80734 14.4184
O -5.36571 -6.20888 13.8424
O -8.27403 -2.74113 18.7525
Si -9.7026 -3.52626 18.5935
Si -6.64281 -2.8263 18.9417
O -6.22512 -7.6373 16.6366
Si -7.60081 -8.56122 16.6167
Si -5.37744 -6.74093 18.1135
O -8.01696 -4.78808 16.2732
Si -9.27848 -5.82044 16.5134
Si -6.43585 -4.36434 16.236
O -9.78705 -4.99516 17.8629
O -8.83959 -7.43458 16.5553
O -10.2637 -5.34912 15.2701
O -6.09127 -3.39776 17.509
O -5.60666 -5.74902 16.4622
O -6.38904 -3.71856 14.7371
O -5.84236 -7.90786 19.1859
Si -6.29461 -9.48827 19.2549
Si -3.79886 -4.5688 19.5685
O -6.93163 -9.99961 20.6652
O -4.85029 -10.185 18.8764
O -7.37923 -9.38068 18.0244
O -3.85593 -3.11773 20.2886
O -2.46849 -5.45761 19.3301
O -5.0581 -5.37612 18.968
O -2.79085 -9.15409 14.1137
Si -3.07502 -10.7705 13.9835
Si -2.30135 -7.63584 13.7003
O 2.12463 -9.49228 11.6002
Si 1.95395 -11.0829 11.8283
Si 1.60554 -8.09989 12.2256
O -1.23875 -9.67723 10.7727
Si -1.17385 -11.1799 11.4538
Si -1.10933 -8.03773 10.8638
O -2.34817 -11.3295 12.6118
O 0.37485 -11.5267 11.9335
O -1.54476 -12.2631 10.277
O -2.05665 -7.48966 12.0892
O 0.341861 -7.5588 11.4101
O -1.10159 -7.38625 9.36222
O 3.44979 -9.37962 14.4995
Si 3.90693 -10.9338 14.2062
Si 2.42968 -8.27372 15.2147
O 3.04511 -11.643 15.429
O 5.52155 -10.4747 14.0907
O 3.13813 -11.4996 12.8698
O 2.95615 -7.83967 16.8369
O 3.13453 -6.98712 14.4183
O 1.50858 -8.06614 13.8422
O -3.01548 -8.17872 18.753
Si -3.2924 -9.78509 18.5933
Si -1.93183 -6.95635 18.9414
O 2.08958 -9.62854 16.6365
Si 1.95443 -11.2802 16.6167
Si 1.91692 -8.40678 18.1132
O -1.25539 -9.25359 16.2727
Si -1.23443 -10.8836 16.5128
Si -0.600955 -7.75322 16.2354
O -2.19681 -10.7669 17.8623
O 0.301279 -11.5466 16.5548
O -2.21702 -11.36 15.2693
O -1.14178 -6.8812 17.5084
O 0.99861 -7.96789 16.4618
O -1.07653 -7.31398 14.7366
O 2.5393 -9.49772 19.1858
Si 3.49324 -10.8364 19.255
Si 1.20272 -5.81782 19.5673
O 3.49571 -11.653 20.6655
O 4.93849 -10.1416 18.8764
O 2.73303 -11.6176 18.0245
O 0.0331279 -4.95831 20.2889
O 2.72706 -5.33186 19.3287
O 1.04895 -7.30598 18.9674
O 5.41768 -7.88861 25.0282
Si 6.50386 -9.11897 24.8979
Si 4.53502 -6.5599 24.6147
O 8.74591 -4.25665 22.5138
Si 9.88321 -5.38169 22.7421
Si 7.33361 -3.79444 23.1393
O 6.79367 -7.00207 21.687
Si 8.00921 -7.88792 22.3681
Si 5.59245 -5.87877 21.7781
O 7.39414 -8.89931 23.5262
O 9.24585 -6.89304 22.8475
O 8.62473 -8.85339 21.1914
O 4.5734 -6.27758 23.0035
O 6.12277 -4.44539 22.3239
O 5.08801 -5.46637 20.2764
O 9.48383 -3.15068 25.4132
Si 10.984 -3.76212 25.1202
Si 7.98327 -3.25888 26.1285
O 11.0012 -4.87822 26.3428
O 11.632 -2.21362 25.0051
O 10.9472 -4.71574 23.7836
O 7.97234 -2.57638 27.7506
O 7.41689 -1.90537 25.3326
O 7.24657 -3.84928 24.7559
O 4.51346 -7.45641 29.6667
Si 5.59692 -8.67438 29.5077
Si 4.23343 -5.84713 29.8558
O 8.83057 -4.36928 27.5503
Si 10.0376 -5.50468 27.5306
Si 7.7678 -3.74234 29.0271
O 6.45168 -6.75048 27.187
Si 7.7391 -7.75037 27.4274
Si 5.68655 -5.30333 27.1498
O 7.04766 -8.42988 28.7768
O 9.21503 -6.9632 27.4694
O 7.49933 -8.81569 26.1839
O 4.66765 -5.18245 28.4229
O 6.85199 -4.18683 27.3759
O 5.04671 -5.40143 25.6508
O 9.00872 -3.93608 30.0997
Si 10.6501 -4.0253 30.1691
Si 5.29863 -2.68705 30.4821
O 11.2897 -4.53282 31.5797
O 11.0081 -2.46205 29.791
O 10.7869 -5.10635 28.9384
O 3.89736 -3.06601 31.2034
O 5.8691 -1.19217 30.2441
O 6.36597 -3.73485 29.8812
O 9.54521 -0.6829 25.0285
Si 11.1843 -0.600842 24.8981
Si 7.95614 -0.544041 24.6149
O 8.78113 4.18371 22.5141
Si 10.3699 4.37143 22.7423
Si 7.53916 3.36787 23.1397
O 9.71037 0.945702 21.6871
Si 11.1607 1.34367 22.3684
Si 8.0832 0.707136 21.7782
O 11.5678 0.23231 23.5266
O 11.154 2.93076 22.8478
O 12.2994 1.22293 21.1917
O 7.75951 -0.338177 23.0037
O 7.29314 2.01529 22.3244
O 7.44632 0.569779 20.2766
O 8.3765 5.45082 25.4134
Si 9.78993 6.24235 25.1201
Si 7.52537 4.21027 26.1288
O 10.6733 5.55975 26.3426
O 8.9831 7.71437 25.0049
O 10.5125 5.61884 23.7836
O 6.98525 4.62725 27.751
O 6.11416 4.61119 25.3325
O 7.52786 3.26595 24.7563
O 8.64374 -1.12005 29.6665
Si 10.2715 -1.03232 29.5074
Si 7.21098 -0.335596 29.8556
O 8.92203 4.18024 27.5504
Si 10.5623 4.41591 27.5305
Si 7.76951 3.74038 29.0274
O 9.30029 0.835719 27.1873
Si 10.8848 1.21871 27.4274
Si 7.69189 1.13985 27.1499
O 10.9849 0.254452 28.7769
O 11.1897 2.86341 27.4692
O 11.568 0.366651 26.1841
O 6.962 0.418606 28.4229
O 7.54562 2.74721 27.376
O 7.36965 0.578435 25.651
O 8.69486 4.59003 30.0996
Si 9.78782 5.81791 30.1686
Si 5.40491 2.46794 30.4822
O 10.5838 6.00235 31.5788
O 8.78858 7.07216 29.7902
O 10.7183 5.25044 28.938
O 4.82718 1.13585 31.2028
O 4.59171 3.84586 30.2439
O 6.88976 2.64923 29.8818
O 6.48511 7.03734 25.0282
Si 7.44302 8.36987 24.8978
Si 5.38591 5.88141 24.6146
O 2.20379 9.47448 22.5143
Si 3.04764 10.8336 22.7425
Si 2.06724 7.99478 23.1398
O 5.31441 8.18189 21.6871
Si 5.90779 9.56393 22.3682
Si 4.48642 6.76095 21.7782
O 7.0306 9.18912 23.5262
O 4.66293 10.5484 22.8478
O 6.7121 10.3788 21.1915
O 5.10212 5.85608 23.0035
O 2.97112 6.95901 22.3244
O 4.19692 6.1775 20.2765
O 0.960889 9.94805 25.4136
Si 1.22342 11.5466 25.1203
Si 1.4002 8.50908 26.1289
O 2.30771 11.8116 26.343
O -0.430509 11.8335 25.0051
O 2.16145 11.7228 23.7838
O 0.737486 8.34654 27.7511
O 0.206909 7.65559 25.3326
O 2.14006 7.9224 24.7564
O 6.26499 6.06009 29.6663
Si 7.21135 7.38737 29.507
Si 4.75836 5.42903 29.8554
O 2.2945 9.58213 27.5506
Si 3.13297 11.0115 27.5307
Si 1.91987 8.40656 29.0274
O 5.14514 7.7928 27.1866
Si 5.83375 9.27028 27.427
Si 3.90459 6.72483 27.1496
O 6.65009 8.74742 28.7764
O 4.73793 10.5341 27.469
O 6.92594 9.27313 26.1837
O 4.01353 5.70451 28.4226
O 2.55674 7.61255 27.3759
O 4.1426 6.12268 25.6508
O 1.8326 9.65956 30.0999
Si 1.55428 11.2797 30.1692
Si 1.44056 5.76443 30.4822
O 1.9067 12.0165 31.5795
O -0.0494391 11.2806 29.791
O 2.57791 11.6535 28.9384
O 2.12182 4.48244 31.2032
O -0.143823 5.98788 30.2444
O 2.22458 7.0383 29.8816
O -1.45856 9.45827 25.0284
Si -1.90323 11.038 24.898
Si -1.2403 7.87813 24.6149
O -6.03347 7.63041 22.5147
Si -6.56994 9.13757 22.7429
Si -4.96163 6.60113 23.1401
O -3.08344 9.25654 21.6873
Si -3.794 10.5821 22.3685
Si -2.48876 7.72325 21.7784
O -2.8009 11.2264 23.5265
O -5.3398 10.2226 22.8482
O -3.9298 11.719 21.1917
O -1.39745 7.6404 23.0037
O -3.58837 6.66203 22.3246
O -2.21296 7.13307 20.2768
O -7.17826 6.95407 25.414
Si -8.26453 8.15593 25.1209
Si -5.77942 6.40022 26.1293
O -7.79564 9.16887 26.3436
O -9.52004 7.04168 25.0058
O -7.81761 8.99925 23.7844
O -6.06554 5.78076 27.7515
O -5.85618 4.93507 25.3332
O -4.85953 6.61285 24.7567
O -0.831714 8.67674 29.6669
Si -1.27935 10.2442 29.5077
Si -1.27764 7.10532 29.8558
O -6.06077 7.76846 27.5511
Si -6.65554 9.31519 27.5312
Si -5.37524 6.74262 29.0278
O -2.88436 8.88157 27.1873
Si -3.61025 10.3411 27.4275
Si -2.82298 7.2458 27.1501
O -2.69251 10.6534 28.7769
O -5.28158 10.2723 27.4695
O -2.9317 11.1968 26.184
O -1.9573 6.69474 28.423
O -4.3574 6.74547 27.3764
O -2.20399 7.05649 25.6511
O -6.40927 7.45563 30.1004
Si -7.84943 8.24815 30.1697
Si -3.60854 4.72035 30.4827
O -8.2059 8.98302 31.58
O -8.85015 6.99499 29.7915
O -7.50349 9.28156 28.939
O -2.18146 4.45361 31.2036
O -4.77112 3.62101 30.245
O -4.11557 6.1276 29.8821
O -8.3039 4.75719 25.0288
Si -9.81632 5.39433 24.8986
Si -6.93252 3.94238 24.6154
O -9.7276 0.0405789 22.5152
Si -11.2404 0.560917 22.7434
Si -8.25457 0.236693 23.1406
O -9.15946 3.36083 21.6879
Si -10.6389 3.63184 22.3691
Si -7.58991 2.86975 21.779
O -10.5233 4.80998 23.5271
O -11.3216 2.19916 22.8488
O -11.6123 4.23455 21.1923
O -6.84465 3.67126 23.0043
O -7.44594 1.34834 22.3251
O -6.95655 2.71739 20.2773
O -9.91245 -1.27626 25.4145
Si -11.5294 -1.37603 25.1214
Si -8.60723 -0.527918 26.1298
O -12.0289 -0.3778 26.3441
O -11.4411 -3.05235 25.0064
O -11.9101 -0.500839 23.7849
O -8.30129 -1.1378 27.752
O -7.5096 -1.50142 25.3336
O -8.20001 0.323873 24.7572
O -7.3022 4.75976 29.6675
Si -8.80674 5.38716 29.5083
Si -6.35167 3.43129 29.8564
O -9.85237 0.105228 27.5516
Si -11.4324 0.604743 27.5318
Si -8.62291 0.0015619 29.0284
O -8.7421 3.2827 27.1879
Si -10.3358 3.62521 27.4281
Si -7.42496 2.31076 27.1506
O -10.0078 4.53744 28.7775
O -11.3241 2.27568 27.47
O -10.5817 4.68923 26.1846
O -6.45437 2.64393 28.4236
O -7.99054 0.799166 27.3769
O -6.89108 2.67666 25.6517
O -9.82509 -0.362299 30.1009
Si -11.3426 -0.994183 30.1702
Si -5.94022 0.121961 30.4829
O -12.1394 -0.814718 31.5805
O -10.9868 -2.55789 29.7918
O -11.9349 -0.0792811 28.9395
O -4.84193 1.07126 31.204
O -5.80564 -1.47239 30.245
O -7.35667 0.602942 29.8825
O -8.89682 -3.52589 25.0291
Si -10.3379 -4.31111 24.899
Si -7.40466 -2.96188 24.6158
O -6.09738 -7.58015 22.5153
Si -7.44746 -8.43834 22.7437
Si -5.33201 -6.30633 23.1406
O -8.3386 -5.06543 21.6882
Si -9.47299 -6.05298 22.3694
Si -6.97598 -4.14462 21.7793
O -10.322 -5.2281 23.5274
O -8.77876 -7.48015 22.8491
O -10.5513 -6.43803 21.1927
O -7.13793 -3.06226 23.0047
O -5.69679 -4.98093 22.3252
O -6.46188 -3.74429 20.2777
O -5.18273 -8.54566 25.4147
Si -6.11291 -9.87199 25.1215
Si -4.95401 -7.05862 26.1299
O -7.2046 -9.64024 26.3444
O -4.74713 -10.848 25.0063
O -7.03484 -9.62384 23.7852
O -4.28614 -7.19971 27.752
O -3.50845 -6.80722 25.3338
O -5.36599 -6.20924 24.7572
O -8.27415 -2.74124 29.6676
Si -9.70269 -3.52641 29.5085
Si -6.64289 -2.82638 29.8565
O -6.22509 -7.63736 27.5518
Si -7.6008 -8.56126 27.5321
Si -5.37736 -6.74084 29.0285
O -8.01711 -4.78812 27.1883
Si -9.2786 -5.82054 27.4284
Si -6.43598 -4.36444 27.1509
O -9.78724 -4.99525 28.7778
O -8.83964 -7.43466 27.4704
O -10.2637 -5.34926 26.1849
O -6.09128 -3.39788 28.4238
O -5.6068 -5.74905 27.3771
O -6.38926 -3.71882 25.652
O -5.84227 -7.90766 30.101
Si -6.2944 -9.48812 30.1703
Si -3.7991 -4.56835 30.4833
O -6.93125 -9.99944 31.5806
O -4.85003 -10.1848 29.7918
O -7.37912 -9.38052 28.9398
O -3.85661 -3.11738 31.2036
O -2.46859 -5.45697 30.2451
O -5.05814 -5.37598 29.8828
O -2.79186 -9.15351 25.0288
Si -3.07515 -10.77 24.899
Si -2.30114 -7.63556 24.6158
O 2.12518 -9.49076 22.516
Si 1.95446 -11.0815 22.7441
Si 1.60612 -8.09843 23.1414
O -1.23817 -9.67675 21.6887
Si -1.17328 -11.1793 22.3699
Si -1.10868 -8.03727 21.7795
O -2.34799 -11.329 23.5274
O 0.375471 -11.5253 22.8499
O -1.54344 -12.2627 21.1931
O -2.05628 -7.48941 23.0047
O 0.342214 -7.55771 22.326
O -1.101 -7.3866 20.2775
O 3.45114 -9.37932 25.416
Si 3.90763 -10.9334 25.1217
Si 2.43041 -8.27357 26.1304
O 3.04539 -11.6429 26.344
O 5.5222 -10.4746 25.0057
O 3.13868 -11.4986 23.7852
O 2.9564 -7.83964 27.7527
O 3.13486 -6.98725 25.333
O 1.50938 -8.06509 24.758
O -3.01558 -8.178 29.6673
Si -3.29228 -9.78448 29.5083
Si -1.93202 -6.95567 29.8563
O 2.08988 -9.62848 27.5517
Si 1.95463 -11.2801 27.5317
Si 1.91711 -8.40703 29.0288
O -1.25505 -9.25319 27.1883
Si -1.23427 -10.8832 27.4282
Si -0.600604 -7.7528 27.1507
O -2.19647 -10.7664 28.7778
O 0.301459 -11.5463 27.4699
O -2.21727 -11.3595 26.1848
O -1.14156 -6.88051 28.4235
O 0.998904 -7.9678 27.3772
O -1.07608 -7.31394 25.6518
O 2.5396 -9.49814 30.101
Si 3.49351 -10.8369 30.1702
Si 1.20287 -5.81823 30.4833
O 3.49614 -11.6538 31.5805
O 4.93866 -10.1418 29.7915
O 2.73327 -11.6178 28.9395
O 0.0326465 -4.95828 31.2033
O 2.72711 -5.33206 30.2444
O 1.04919 -7.30639 29.8832
O 5.41736 -7.88847 35.9438
Si 6.50348 -9.11877 35.8134
Si 4.535 -6.55959 35.5302
O 8.74564 -4.25668 33.4297
Si 9.88294 -5.3818 33.6577
Si 7.33343 -3.7943 34.0552
O 6.79347 -7.00181 32.6025
Si 8.00885 -7.88783 33.2836
Si 5.59238 -5.87843 32.6936
O 7.39382 -8.89907 34.4418
O 9.24559 -6.89315 33.763
O 8.62421 -8.85329 32.1068
O 4.57329 -6.27731 33.9191
O 6.12256 -4.44515 33.2398
O 5.08799 -5.46649 31.1919
O 9.48429 -3.15065 36.3289
Si 10.9844 -3.76227 36.0356
Si 7.98364 -3.2587 37.0443
O 11.0014 -4.8784 37.2582
O 11.6322 -2.21369 35.9204
O 10.9473 -4.71583 34.699
O 7.97264 -2.57629 38.6664
O 7.41726 -1.9054 36.2479
O 7.24679 -3.8493 35.6718
O 4.51339 -7.45629 40.5818
Si 5.59684 -8.67426 40.4228
Si 4.23339 -5.84701 40.7709
O 8.83087 -4.36917 38.466
Si 10.0379 -5.50467 38.4461
Si 7.76826 -3.74239 39.9428
O 6.45177 -6.75027 38.1028
Si 7.73918 -7.75023 38.3428
Si 5.68682 -5.3031 38.0653
O 7.0477 -8.42983 39.6922
O 9.21515 -6.96311 38.3847
O 7.49908 -8.8156 37.0994
O 4.66782 -5.18206 39.3383
O 6.85229 -4.18668 38.2915
O 5.04684 -5.40116 36.5664
O 9.0094 -3.93588 41.0152
Si 10.6508 -4.02492 41.0843
Si 5.29889 -2.68698 41.3973
O 11.291 -4.53225 42.4946
O 11.0085 -2.46168 40.7059
O 10.7874 -5.10624 39.8537
O 3.8973 -3.06578 42.118
O 5.86928 -1.19214 41.1589
O 6.36654 -3.7349 40.7971
O 9.54546 -0.682813 35.9435
Si 11.1845 -0.600888 35.8131
Si 7.9564 -0.544193 35.5299
O 8.78119 4.18359 33.4292
Si 10.3699 4.37143 33.6574
Si 7.53926 3.36773 34.0548
O 9.71047 0.945672 32.6022
Si 11.1609 1.34367 33.2834
Si 8.0833 0.707049 32.6934
O 11.568 0.232257 34.4415
O 11.1541 2.93077 33.7629
O 12.2995 1.22306 32.1067
O 7.75979 -0.338432 33.9188
O 7.29321 2.01517 33.2396
O 7.44647 0.569738 31.1917
O 8.37648 5.45091 36.3283
Si 9.78994 6.24242 36.035
Si 7.52536 4.21037 37.0437
O 10.6732 5.55997 37.2577
O 8.98308 7.7144 35.9198
O 10.5126 5.61886 34.6985
O 6.98505 4.6272 38.6659
O 6.11406 4.61126 36.2475
O 7.52801 3.26589 35.6714
O 8.64393 -1.11975 40.5815
Si 10.2717 -1.03202 40.4225
Si 7.21108 -0.335416 40.7704
O 8.92188 4.18036 38.4654
Si 10.5622 4.41605 38.4456
Si 7.76925 3.74032 39.9423
O 9.30046 0.835892 38.1019
Si 10.8849 1.21883 38.3423
Si 7.692 1.13994 38.0647
O 10.9851 0.254733 39.6918
O 11.1897 2.86358 38.384
O 11.5682 0.366655 37.099
O 6.96208 0.418721 39.3377
O 7.54559 2.74722 38.2909
O 7.36974 0.578349 36.5659
O 8.69449 4.58983 41.0147
Si 9.78755 5.8176 41.084
Si 5.40464 2.46779 41.3971
O 10.5834 6.00159 42.4943
O 8.78842 7.07204 40.7058
O 10.7181 5.25045 39.8532
O 4.82703 1.13582 42.1179