2688
 Atoms. Timestep: 30001
O 11.4152 10.3865 -6.92986
O 8.46681 7.44927 -6.74632
O 13.2223 7.95996 -11.7574
O 9.75736 5.6544 -11.574
O 11.3119 10.2927 -11.7598
O 8.82796 7.62414 -12.1897
O 13.1028 7.88824 -6.93222
O 10.1464 5.75564 -7.36226
O 10.5587 8.30292 -7.97243
Si 12.0328 8.98638 -7.72351
Si 9.48109 7.08109 -7.91153
O 11.9758 6.08348 -12.7998
Si 13.5549 6.46625 -12.551
Si 10.6805 5.09536 -12.739
O 10.9778 7.77709 -10.663
Si 12.0697 8.9633 -10.9631
Si 9.53321 7.06172 -10.8664
O 12.4534 9.27566 -9.34032
O 8.90569 6.96179 -9.40109
O 12.2845 5.48627 -5.83513
Si 13.5868 6.43658 -6.13543
Si 10.7281 5.06646 -6.03881
O 14.024 6.66801 -4.51262
O 10.093 5.09068 -4.57355
O 6.57153 13.9643 -6.92987
O 4.97169 10.1224 -6.74591
O 9.16948 12.4138 -11.7575
O 6.85057 8.95792 -11.5737
O 6.51194 13.8383 -11.7598
O 5.23834 10.4221 -12.1895
O 9.08654 12.302 -6.93217
O 7.17135 9.20014 -7.3621
O 6.57761 11.7114 -7.97243
Si 7.67787 12.9071 -7.72356
Si 6.04954 10.1703 -7.91124
O 8.73582 10.2031 -12.7998
Si 10.0483 11.161 -12.5511
Si 7.91714 8.79456 -12.739
O 7.16577 11.3863 -10.6627
Si 7.72075 12.8999 -10.9631
Si 6.10508 10.1724 -10.8661
O 7.95583 13.3353 -9.34036
O 5.5636 9.83979 -9.4008
O 9.24961 9.76944 -5.83512
Si 10.0891 11.1458 -6.13553
Si 7.97251 8.78582 -6.03872
O 10.4045 11.5269 -4.51273
O 7.37629 8.56531 -4.5735
O 0.727347 15.416 -6.92983
O 0.719197 11.2542 -6.74615
O 3.72094 14.9779 -11.7574
O 2.90106 10.8978 -11.5736
O 0.720623 15.2769 -11.7597
O 0.851171 11.6333 -12.1895
O 3.68718 14.8428 -6.93227
O 3.10438 11.2435 -7.36192
O 1.59521 13.3369 -7.97227
Si 2.15409 14.8626 -7.72349
Si 1.69692 11.7109 -7.91128
O 4.16647 12.7695 -12.8
Si 5.01228 14.1569 -12.5511
Si 3.94902 11.1549 -12.7388
O 2.26296 13.2618 -10.6626
Si 2.1965 14.8726 -10.963
Si 1.74745 11.7344 -10.8662
O 2.24704 15.3647 -9.34024
O 1.37443 11.2198 -9.4009
O 4.80654 12.5656 -5.83499
Si 5.05578 14.1583 -6.13555
Si 4.00325 11.168 -6.03859
O 5.20144 14.6312 -4.51275
O 3.53704 10.736 -4.57331
O -5.22756 14.521 -6.92954
O -3.64259 10.6728 -6.74605
O -2.29412 15.2617 -11.7573
O -1.49025 11.1783 -11.5737
O -5.18051 14.3897 -11.7594
O -3.66576 11.0737 -12.1895
O -2.27368 15.1238 -6.93202
O -1.43487 11.5758 -7.36197
O -3.63035 12.9321 -7.97204
Si -3.69769 14.5556 -7.72325
Si -2.91407 11.4688 -7.91126
O -1.0375 13.3918 -12.7997
Si -0.78687 14.9973 -12.5509
Si -0.620435 11.817 -12.7389
O -2.98416 13.1183 -10.6627
Si -3.66223 14.581 -10.9628
Si -2.87618 11.5099 -10.8662
O -3.8039 15.055 -9.34002
O -3.02408 10.8918 -9.4009
O -0.367723 13.4483 -5.8352
Si -0.747267 15.0152 -6.13541
Si -0.575441 11.8498 -6.03865
O -0.793698 15.5078 -4.51261
O -0.840819 11.2723 -4.57334
O -10.3868 11.4151 -6.92952
O -7.44961 8.4667 -6.74583
O -7.9601 13.2221 -11.7571
O -5.6547 9.75702 -11.5736
O -10.293 11.3117 -11.7595
O -7.62436 8.82768 -12.1893
O -7.88839 13.1026 -6.93189
O -5.75598 10.1464 -7.36192
O -8.30326 10.5585 -7.97197
Si -8.98663 12.0327 -7.72317
Si -7.08141 9.48094 -7.91107
O -6.08374 11.9754 -12.7993
Si -6.46636 13.5546 -12.5507
Si -5.09564 10.6801 -12.7387
O -7.77738 10.9776 -10.6626
Si -8.96354 12.0695 -10.9628
Si -7.06202 9.53299 -10.866
O -9.27586 12.4533 -9.33999
O -6.96213 8.9055 -9.40062
O -5.48622 12.2843 -5.83491
Si -6.43666 13.5865 -6.13519
Si -5.06657 10.7279 -6.03849
O -6.66806 14.0237 -4.51236
O -5.09099 10.0927 -4.57326
O -13.9647 6.57142 -6.92969
O -10.1229 4.97157 -6.74582
O -12.4142 9.16936 -11.7573
O -8.95836 6.85042 -11.5734
O -13.8387 6.51181 -11.7596
O -10.4227 5.23825 -12.1894
O -12.3023 9.08643 -6.93196
O -9.20029 7.171 -7.36182
O -11.7117 6.57764 -7.97239
Si -12.9075 7.67776 -7.72336
Si -10.1706 6.04944 -7.91113
O -10.2033 8.73574 -12.7996
Si -11.1613 10.0482 -12.5508
Si -8.79483 7.917 -12.7386
O -11.3868 7.16557 -10.6624
Si -12.9004 7.72064 -10.963
Si -10.1729 6.1049 -10.866
O -13.3357 7.95573 -9.34017
O -9.84023 5.56345 -9.4007
O -9.76996 9.24922 -5.83472
Si -11.1462 10.0889 -6.13527
Si -8.78619 7.97224 -6.03841
O -11.5273 10.4044 -4.51246
O -8.56556 7.37612 -4.57316
O -15.4162 0.727137 -6.92955
O -11.2545 0.719224 -6.74585
O -14.9782 3.72067 -11.7572
O -10.898 2.90092 -11.5736
O -15.2769 0.720342 -11.7594
O -11.633 0.850837 -12.1892
O -14.8431 3.68699 -6.93212
O -11.2443 3.10445 -7.36185
O -13.3372 1.59492 -7.97215
Si -14.8629 2.15385 -7.72328
Si -11.7112 1.69681 -7.91107
O -12.77 4.16617 -12.7997
Si -14.1573 5.01211 -12.5509
Si -11.1555 3.94886 -12.7387
O -13.2618 2.26275 -10.6626
Si -14.8727 2.19623 -10.9628
Si -11.7345 1.74723 -10.8659
O -15.3649 2.24675 -9.34006
O -11.22 1.37435 -9.40062
O -12.566 4.80665 -5.83487
Si -14.1588 5.05567 -6.13538
Si -11.1685 4.00324 -6.03849
O -14.6317 5.20127 -4.51257
O -10.7366 3.53693 -4.57324
O -14.5211 -5.22775 -6.92921
O -10.6731 -3.64255 -6.74556
O -15.2619 -2.29431 -11.7569
O -11.1783 -1.49059 -11.5734
O -14.3899 -5.18073 -11.7591
O -11.0743 -3.66592 -12.1891
O -15.124 -2.27386 -6.93167
O -11.5762 -1.43491 -7.36166
O -12.9323 -3.6306 -7.97149
Si -14.5558 -3.69788 -7.72291
Si -11.4691 -2.91416 -7.91079
O -13.3918 -1.03776 -12.7993
Si -14.9973 -0.787114 -12.5506
Si -11.8169 -0.620732 -12.7385
O -13.1186 -2.98428 -10.6622
Si -14.5813 -3.66245 -10.9625
Si -11.5102 -2.87638 -10.8657
O -15.0553 -3.80407 -9.33968
O -10.8921 -3.02427 -9.40041
O -13.4485 -0.367836 -5.83482
Si -15.0154 -0.747436 -6.1351
Si -11.8499 -0.575445 -6.03832
O -15.5078 -0.793882 -4.51227
O -11.2724 -0.840961 -4.57308
O -11.4151 -10.3868 -6.92957
O -8.46653 -7.44967 -6.74595
O -13.2221 -7.96028 -11.7569
O -9.75731 -5.65473 -11.5733
O -11.3119 -10.2931 -11.7595
O -8.8278 -7.62428 -12.1894
O -13.1027 -7.88853 -6.93175
O -10.1459 -5.75569 -7.36162
O -10.5587 -8.30289 -7.97204
Si -12.0327 -8.98659 -7.72312
Si -9.48086 -7.08122 -7.91103
O -11.9757 -6.08382 -12.7992
Si -13.5548 -6.46655 -12.5505
Si -10.6804 -5.09569 -12.7384
O -10.9775 -7.77773 -10.6623
Si -12.0695 -8.96368 -10.9627
Si -9.53301 -7.0621 -10.8659
O -12.4533 -9.27596 -9.33992
O -8.90547 -6.96204 -9.40061
O -12.2841 -5.48655 -5.83469
Si -13.5865 -6.43683 -6.13497
Si -10.7278 -5.06663 -6.03817
O -14.0238 -6.66826 -4.51218
O -10.0928 -5.09092 -4.57285
O -6.57147 -13.9647 -6.92982
O -4.97164 -10.1229 -6.74605
O -9.16946 -12.4142 -11.7574
O -6.85059 -8.95832 -11.5736
O -6.51187 -13.8386 -11.7598
O -5.23829 -10.4225 -12.1896
O -9.08651 -12.3024 -6.93213
O -7.17123 -9.20054 -7.36206
O -6.57769 -11.7118 -7.97263
Si -7.67784 -12.9075 -7.72353
Si -6.04952 -10.1707 -7.91135
O -8.73602 -10.2032 -12.7998
Si -10.0483 -11.1614 -12.5509
Si -7.9172 -8.79479 -12.7388
O -7.16571 -11.3867 -10.6627
Si -7.72071 -12.9003 -10.9631
Si -6.105 -10.1728 -10.8662
O -7.95578 -13.3358 -9.34035
O -5.56353 -9.84026 -9.40089
O -9.2493 -9.77002 -5.83483
Si -10.089 -11.1463 -6.13537
Si -7.97227 -8.78633 -6.03857
O -10.4045 -11.5274 -4.51257
O -7.37621 -8.56565 -4.5733
O -0.727285 -15.4163 -6.92965
O -0.719248 -11.2545 -6.74595
O -3.72077 -14.9781 -11.7574
O -2.9009 -10.8979 -11.5737
O -0.720494 -15.2769 -11.7594
O -0.850941 -11.6332 -12.1893
O -3.68706 -14.8431 -6.93219
O -3.10448 -11.2441 -7.36202
O -1.59501 -13.3371 -7.9722
Si -2.15396 -14.8629 -7.72337
Si -1.69685 -11.7112 -7.91118
O -4.16627 -12.7698 -12.7998
Si -5.01216 -14.1572 -12.5511
Si -3.94889 -11.1552 -12.7389
O -2.26298 -13.2618 -10.6628
Si -2.19638 -14.8726 -10.9629
Si -1.74733 -11.7345 -10.8661
O -2.24689 -15.3648 -9.34016
O -1.37438 -11.22 -9.40075
O -4.80666 -12.5659 -5.83501
Si -5.05572 -14.1587 -6.1355
Si -4.00328 -11.1684 -6.03866
O -5.20132 -14.6315 -4.5127
O -3.53697 -10.7364 -4.57342
O 5.22762 -14.5213 -6.92943
O 3.64247 -10.6733 -6.74574
O 2.29419 -15.262 -11.757
O 1.49052 -11.1784 -11.5734
O 5.18065 -14.3901 -11.7593
O 3.66577 -11.0742 -12.1893
O 2.27372 -15.1242 -6.93177
O 1.43475 -11.5763 -7.36174
O 3.63037 -12.9325 -7.97174
Si 3.69773 -14.556 -7.72308
Si 2.91396 -11.4693 -7.91092
O 1.03774 -13.3919 -12.7992
Si 0.786974 -14.9974 -12.5507
Si 0.62066 -11.8171 -12.7386
O 2.9844 -13.1186 -10.6624
Si 3.66237 -14.5814 -10.9627
Si 2.87637 -11.5103 -10.8658
O 3.80397 -15.0554 -9.33986
O 3.02408 -10.8922 -9.40052
O 0.367671 -13.4487 -5.83491
Si 0.747297 -15.0155 -6.13518
Si 0.575335 -11.8501 -6.03836
O 0.793693 -15.508 -4.51234
O 0.840913 -11.2726 -4.57313
O 10.3867 -11.4152 -6.92992
O 7.44955 -8.46673 -6.74637
O 7.96017 -13.2223 -11.7572
O 5.65471 -9.75741 -11.5737
O 10.293 -11.312 -11.7599
O 7.62431 -8.828 -12.1898
O 7.88841 -13.1029 -6.93209
O 5.75565 -10.1461 -7.36202
O 8.30286 -10.5589 -7.97244
Si 8.98652 -12.0329 -7.72345
Si 7.08117 -9.48109 -7.91144
O 6.08363 -11.9758 -12.7996
Si 6.46643 -13.555 -12.5508
Si 5.09556 -10.6805 -12.7387
O 7.77759 -10.9777 -10.6628
Si 8.96359 -12.0697 -10.963
Si 7.06209 -9.5332 -10.8663
O 9.27589 -12.4535 -9.34025
O 6.96202 -8.90569 -9.40102
O 5.48657 -12.2843 -5.83491
Si 6.43674 -13.5867 -6.13524
Si 5.06662 -10.728 -6.03852
O 6.66816 -14.024 -4.51244
O 5.09084 -10.0929 -4.57321
O 13.9645 -6.57159 -6.92995
O 10.1227 -4.97161 -6.74621
O 12.4141 -9.16956 -11.7577
O 8.95819 -6.8507 -11.5739
O 13.8385 -6.51199 -11.7599
O 10.4225 -5.23846 -12.1897
O 12.3022 -9.08657 -6.93235
O 9.20042 -7.17127 -7.36234
O 11.7117 -6.57762 -7.97266
Si 12.9073 -7.6779 -7.72371
Si 10.1706 -6.04949 -7.91152
O 10.2032 -8.73608 -12.8001
Si 11.1613 -10.0484 -12.5512
Si 8.79476 -7.91729 -12.7392
O 11.3865 -7.16593 -10.6629
Si 12.9002 -7.72083 -10.9633
Si 10.1727 -6.10518 -10.8664
O 13.3356 -7.95586 -9.34052
O 9.84013 -5.5636 -9.4011
O 9.76978 -9.24951 -5.83525
Si 11.1461 -10.0891 -6.13566
Si 8.78617 -7.97241 -6.03893
O 11.5272 -10.4045 -4.51288
O 8.56559 -7.37632 -4.57367
O 15.4163 -0.727376 -6.92982
O 11.2545 -0.719211 -6.74605
O 14.9782 -3.72096 -11.7575
O 10.8979 -2.90109 -11.5737
O 15.2771 -0.720692 -11.7596
O 11.6335 -0.851264 -12.1894
O 14.843 -3.68717 -6.93226
O 11.2439 -3.10442 -7.362
O 13.3372 -1.59509 -7.97218
Si 14.8629 -2.15407 -7.72347
Si 11.7112 -1.69689 -7.91123
O 12.7698 -4.16636 -12.8
Si 14.1571 -5.01228 -12.5512
Si 11.1552 -3.949 -12.7389
O 13.262 -2.2631 -10.6627
Si 14.8728 -2.19656 -10.963
Si 11.7346 -1.74756 -10.8661
O 15.3649 -2.24704 -9.34024
O 11.2201 -1.37446 -9.40084
O 12.5658 -4.80673 -5.83518
Si 14.1586 -5.05583 -6.13562
Si 11.1682 -4.00331 -6.0387
O 14.6314 -5.20146 -4.51283
O 10.7363 -3.53705 -4.57344
O 14.5214 5.2275 -6.9297
O 10.6733 3.64238 -6.74616
O 15.2621 2.29405 -11.7573
O 11.1787 1.4902 -11.5736
O 14.3901 5.18046 -11.7596
O 11.0741 3.66554 -12.1896
O 15.1243 2.27361 -6.93204
O 11.5763 1.43468 -7.36196
O 12.9326 3.63018 -7.97219
Si 14.5561 3.6976 -7.72335
Si 11.4694 2.91385 -7.91131
O 13.3922 1.03741 -12.7996
Si 14.9976 0.786783 -12.5509
Si 11.8173 0.620336 -12.7387
O 13.1187 2.98431 -10.6626
Si 14.5815 3.66222 -10.9629
Si 11.5104 2.87619 -10.8662
O 15.0555 3.80388 -9.34012
O 10.8922 3.02392 -9.40091
O 13.4488 0.367754 -5.83502
Si 15.0157 0.747225 -6.13537
Si 11.8502 0.575383 -6.03852
O 15.5082 0.793601 -4.51255
O 11.2727 0.84077 -4.57323
O 11.4152 10.3865 2.72526
O 8.46681 7.44927 2.9088
O 13.2223 7.95996 -2.10224
O 9.75736 5.6544 -1.91884
O 11.3119 10.2927 -2.10471
O 8.82796 7.62414 -2.53461
O 13.1028 7.88824 2.7229
O 10.1464 5.75564 2.29286
O 10.5587 8.30292 1.68269
Si 12.0328 8.98638 1.93161
Si 9.48109 7.08109 1.74359
O 11.9758 6.08348 -3.14464
Si 13.5549 6.46625 -2.89586
Si 10.6805 5.09536 -3.08392
O 10.9778 7.77709 -1.00787
Si 12.0697 8.9633 -1.30796
Si 9.53321 7.06172 -1.2113
O 12.4534 9.27566 0.314803
O 8.90569 6.96179 0.254028
O 12.2845 5.48627 3.81999
Si 13.5868 6.43658 3.51969
Si 10.7281 5.06646 3.61631
O 14.024 6.66801 5.1425
O 10.093 5.09068 5.08157
O 6.57153 13.9643 2.72525
O 4.97169 10.1224 2.90921
O 9.16948 12.4138 -2.10238
O 6.85057 8.95792 -1.9186
O 6.51194 13.8383 -2.10464
O 5.23834 10.4221 -2.53435
O 9.08654 12.302 2.72295
O 7.17135 9.20014 2.29302
O 6.57761 11.7114 1.68269
Si 7.67787 12.9071 1.93156
Si 6.04954 10.1703 1.74388
O 8.73582 10.2031 -3.14469
Si 10.0483 11.161 -2.89599
Si 7.91714 8.79456 -3.08385
O 7.16577 11.3863 -1.00754
Si 7.72075 12.8999 -1.30802
Si 6.10508 10.1724 -1.21099
O 7.95583 13.3353 0.314763
O 5.5636 9.83979 0.254318
O 9.24961 9.76944 3.82
Si 10.0891 11.1458 3.51959
Si 7.97251 8.78582 3.6164
O 10.4045 11.5269 5.14239
O 7.37629 8.56531 5.08162
O 0.727347 15.416 2.72529
O 0.719197 11.2542 2.90897
O 3.72094 14.9779 -2.10232
O 2.90106 10.8978 -1.91852
O 0.720623 15.2769 -2.10455
O 0.851171 11.6333 -2.5344
O 3.68718 14.8428 2.72285
O 3.10438 11.2435 2.2932
O 1.59521 13.3369 1.68284
Si 2.15409 14.8626 1.93163
Si 1.69692 11.7109 1.74384
O 4.16647 12.7695 -3.14486
Si 5.01228 14.1569 -2.89599
Si 3.94902 11.1549 -3.08371
O 2.26296 13.2618 -1.0075
Si 2.1965 14.8726 -1.30792
Si 1.74745 11.7344 -1.21103
O 2.24704 15.3647 0.314876
O 1.37443 11.2198 0.254219
O 4.80654 12.5656 3.82013
Si 5.05578 14.1583 3.51957
Si 4.00325 11.168 3.61653
O 5.20144 14.6312 5.14237
O 3.53704 10.736 5.08181
O -5.22756 14.521 2.72558
O -3.64259 10.6728 2.90907
O -2.29412 15.2617 -2.10213
O -1.49025 11.1783 -1.91857
O -5.18051 14.3897 -2.10433
O -3.66576 11.0737 -2.53437
O -2.27368 15.1238 2.7231
O -1.43487 11.5758 2.29315
O -3.63035 12.9321 1.68308
Si -3.69769 14.5556 1.93187
Si -2.91407 11.4688 1.74386
O -1.0375 13.3918 -3.14457
Si -0.78687 14.9973 -2.89582
Si -0.620435 11.817 -3.08373
O -2.98416 13.1183 -1.00754
Si -3.66223 14.581 -1.30771
Si -2.87618 11.5099 -1.21104
O -3.8039 15.055 0.315096
O -3.02408 10.8918 0.25422
O -0.367723 13.4483 3.81992
Si -0.747267 15.0152 3.51971
Si -0.575441 11.8498 3.61647
O -0.793698 15.5078 5.14251
O -0.840819 11.2723 5.08177
O -10.3868 11.4151 2.7256
O -7.44961 8.4667 2.90929
O -7.9601 13.2221 -2.10194
O -5.6547 9.75702 -1.91844
O -10.293 11.3117 -2.10436
O -7.62436 8.82768 -2.53416
O -7.88839 13.1026 2.72323
O -5.75598 10.1464 2.2932
O -8.30326 10.5585 1.68315
Si -8.98663 12.0327 1.93195
Si -7.08141 9.48094 1.74405
O -6.08374 11.9754 -3.14414
Si -6.46636 13.5546 -2.8956
Si -5.09564 10.6801 -3.08358
O -7.77738 10.9776 -1.0075
Si -8.96354 12.0695 -1.30764
Si -7.06202 9.53299 -1.21084
O -9.27586 12.4533 0.315129
O -6.96213 8.9055 0.254498
O -5.48622 12.2843 3.82021
Si -6.43666 13.5865 3.51993
Si -5.06657 10.7279 3.61663
O -6.66806 14.0237 5.14276
O -5.09099 10.0927 5.08186
O -13.9647 6.57142 2.72543
O -10.1229 4.97157 2.9093
O -12.4142 9.16936 -2.10217
O -8.95836 6.85042 -1.91832
O -13.8387 6.51181 -2.1045
O -10.4227 5.23825 -2.53429
O -12.3023 9.08643 2.72316
O -9.20029 7.171 2.2933
O -11.7117 6.57764 1.68273
Si -12.9075 7.67776 1.93176
Si -10.1706 6.04944 1.74399
O -10.2033 8.73574 -3.14448
Si -11.1613 10.0482 -2.89572
Si -8.79483 7.917 -3.08352
O -11.3868 7.16557 -1.00727
Si -12.9004 7.72064 -1.30784
Si -10.1729 6.1049 -1.21089
O -13.3357 7.95573 0.31495
O -9.84023 5.56345 0.25442
O -9.76996 9.24922 3.8204
Si -11.1462 10.0889 3.51985
Si -8.78619 7.97224 3.61671
O -11.5273 10.4044 5.14266
O -8.56556 7.37612 5.08196
O -15.4162 0.727137 2.72557
O -11.2545 0.719224 2.90927
O -14.9782 3.72067 -2.10209
O -10.898 2.90092 -1.91844
O -15.2769 0.720342 -2.10426
O -11.633 0.850837 -2.53408
O -14.8431 3.68699 2.723
O -11.2443 3.10445 2.29327
O -13.3372 1.59492 1.68297
Si -14.8629 2.15385 1.93184
Si -11.7112 1.69681 1.74405
O -12.77 4.16617 -3.14458
Si -14.1573 5.01211 -2.89581
Si -11.1555 3.94886 -3.08361
O -13.2618 2.26275 -1.00748
Si -14.8727 2.19623 -1.30769
Si -11.7345 1.74723 -1.21082
O -15.3649 2.24675 0.315056
O -11.22 1.37435 0.254499
O -12.566 4.80665 3.82025
Si -14.1588 5.05567 3.51974
Si -11.1685 4.00324 3.61663
O -14.6317 5.20127 5.14255
O -10.7366 3.53693 5.08188
O -14.5211 -5.22775 2.72591
O -10.6731 -3.64255 2.90956
O -15.2619 -2.29431 -2.1018
O -11.1783 -1.49059 -1.91825
O -14.3899 -5.18073 -2.10403
O -11.0743 -3.66592 -2.534
O -15.124 -2.27386 2.72345
O -11.5762 -1.43491 2.29345
O -12.9323 -3.6306 1.68363
Si -14.5558 -3.69788 1.93221
Si -11.4691 -2.91416 1.74433
O -13.3918 -1.03776 -3.14416
Si -14.9973 -0.787114 -2.89551
Si -11.8169 -0.620732 -3.08342
O -13.1186 -2.98428 -1.00713
Si -14.5813 -3.66245 -1.30737
Si -11.5102 -2.87638 -1.21055
O -15.0553 -3.80407 0.315441
O -10.8921 -3.02427 0.254707
O -13.4485 -0.367836 3.8203
Si -15.0154 -0.747436 3.52002
Si -11.8499 -0.575445 3.6168
O -15.5078 -0.793882 5.14285
O -11.2724 -0.840961 5.08204
O -11.4151 -10.3868 2.72555
O -8.46653 -7.44967 2.90917
O -13.2221 -7.96028 -2.10182
O -9.75731 -5.65473 -1.91817
O -11.3119 -10.2931 -2.10442
O -8.8278 -7.62428 -2.53424
O -13.1027 -7.88853 2.72337
O -10.1459 -5.75569 2.2935
O -10.5587 -8.30289 1.68308
Si -12.0327 -8.98659 1.932
Si -9.48086 -7.08122 1.74409
O -11.9757 -6.08382 -3.14405
Si -13.5548 -6.46655 -2.89538
Si -10.6804 -5.09569 -3.08327
O -10.9775 -7.77773 -1.00722
Si -12.0695 -8.96368 -1.30759
Si -9.53301 -7.0621 -1.2108
O -12.4533 -9.27596 0.315205
O -8.90547 -6.96204 0.254513
O -12.2841 -5.48655 3.82043
Si -13.5865 -6.43683 3.52015
Si -10.7278 -5.06663 3.61695
O -14.0238 -6.66826 5.14294
O -10.0928 -5.09092 5.08227
O -6.57147 -13.9647 2.7253
O -4.97164 -10.1229 2.90907
O -9.16946 -12.4142 -2.1023
O -6.85059 -8.95832 -1.9185
O -6.51187 -13.8386 -2.10465
O -5.23829 -10.4225 -2.53448
O -9.08651 -12.3024 2.72299
O -7.17123 -9.20054 2.29306
O -6.57769 -11.7118 1.68249
Si -7.67784 -12.9075 1.93159
Si -6.04952 -10.1707 1.74377
O -8.73602 -10.2032 -3.14469
Si -10.0483 -11.1614 -2.89582
Si -7.9172 -8.79479 -3.08368
O -7.16571 -11.3867 -1.00756
Si -7.72071 -12.9003 -1.30799
Si -6.105 -10.1728 -1.2111
O -7.95578 -13.3358 0.314775
O -5.56353 -9.84026 0.254226
O -9.2493 -9.77002 3.82029
Si -10.089 -11.1463 3.51975
Si -7.97227 -8.78633 3.61655
O -10.4045 -11.5274 5.14255
O -7.37621 -8.56565 5.08182
O -0.727285 -15.4163 2.72547
O -0.719248 -11.2545 2.90917
O -3.72077 -14.9781 -2.10226
O -2.9009 -10.8979 -1.91861
O -0.720494 -15.2769 -2.10432
O -0.850941 -11.6332 -2.53421
O -3.68706 -14.8431 2.72293
O -3.10448 -11.2441 2.2931
O -1.59501 -13.3371 1.68292
Si -2.15396 -14.8629 1.93175
Si -1.69685 -11.7112 1.74394
O -4.16627 -12.7698 -3.14472
Si -5.01216 -14.1572 -2.89596
Si -3.94889 -11.1552 -3.08377
O -2.26298 -13.2618 -1.00764
Si -2.19638 -14.8726 -1.30779
Si -1.74733 -11.7345 -1.21094
O -2.24689 -15.3648 0.314963
O -1.37438 -11.22 0.254372
O -4.80666 -12.5659 3.82011
Si -5.05572 -14.1587 3.51962
Si -4.00328 -11.1684 3.61646
O -5.20132 -14.6315 5.14242
O -3.53697 -10.7364 5.0817
O 5.22762 -14.5213 2.72569
O 3.64247 -10.6733 2.90938
O 2.29419 -15.262 -2.10189
O 1.49052 -11.1784 -1.91831
O 5.18065 -14.3901 -2.10422
O 3.66577 -11.0742 -2.53419
O 2.27372 -15.1242 2.72335
O 1.43475 -11.5763 2.29338
O 3.63037 -12.9325 1.68338
Si 3.69773 -14.556 1.93204
Si 2.91396 -11.4693 1.7442
O 1.03774 -13.3919 -3.14411
Si 0.786974 -14.9974 -2.89558
Si 0.62066 -11.8171 -3.08346
O 2.9844 -13.1186 -1.00724
Si 3.66237 -14.5814 -1.30754
Si 2.87637 -11.5103 -1.21069
O 3.80397 -15.0554 0.315262
O 3.02408 -10.8922 0.254604
O 0.367671 -13.4487 3.82021
Si 0.747297 -15.0155 3.51994
Si 0.575334 -11.8501 3.61676
O 0.793693 -15.508 5.14278
O 0.840913 -11.2726 5.08199
O 10.3867 -11.4152 2.7252
O 7.44955 -8.46673 2.90875
O 7.96017 -13.2223 -2.1021
O 5.65471 -9.75741 -1.9186
O 10.293 -11.312 -2.10477
O 7.62431 -8.828 -2.53466
O 7.88841 -13.1029 2.72303
O 5.75565 -10.1461 2.2931
O 8.30286 -10.5589 1.68268
Si 8.98652 -12.0329 1.93167
Si 7.08117 -9.48109 1.74368
O 6.08363 -11.9758 -3.14445
Si 6.46643 -13.555 -2.89565
Si 5.09556 -10.6805 -3.08362
O 7.77759 -10.9777 -1.00763
Si 8.96359 -12.0697 -1.30791
Si 7.06209 -9.5332 -1.21123
O 9.27589 -12.4535 0.314872
O 6.96202 -8.90569 0.254099
O 5.48657 -12.2843 3.82021
Si 6.43674 -13.5867 3.51988
Si 5.06662 -10.728 3.6166
O 6.66816 -14.024 5.14268
O 5.09084 -10.0929 5.08191
O 13.9645 -6.57159 2.72517
O 10.1227 -4.97161 2.90891
O 12.4141 -9.16956 -2.10256
O 8.95819 -6.8507 -1.91882
O 13.8385 -6.51199 -2.10481
O 10.4225 -5.23846 -2.53461
O 12.3022 -9.08657 2.72277
O 9.20042 -7.17127 2.29278
O 11.7117 -6.57762 1.68246
Si 12.9073 -7.6779 1.93141
Si 10.1706 -6.04949 1.7436
O 10.2032 -8.73608 -3.14502
Si 11.1613 -10.0484 -2.89612
Si 8.79476 -7.91729 -3.08405
O 11.3865 -7.16593 -1.0078
Si 12.9002 -7.72083 -1.30819
Si 10.1727 -6.10518 -1.21127
O 13.3356 -7.95586 0.314602
O 9.84013 -5.5636 0.254018
O 9.76978 -9.24951 3.81987
Si 11.1461 -10.0891 3.51946
Si 8.78617 -7.97241 3.61619
O 11.5272 -10.4045 5.14224
O 8.56559 -7.37632 5.08145
O 15.4163 -0.727376 2.7253
O 11.2545 -0.719211 2.90907
O 14.9782 -3.72096 -2.10238
O 10.8979 -2.90109 -1.91858
O 15.2771 -0.720692 -2.10449
O 11.6335 -0.851264 -2.53433
O 14.843 -3.68717 2.72286
O 11.2439 -3.10442 2.29312
O 13.3372 -1.59509 1.68294
Si 14.8629 -2.15407 1.93165
Si 11.7112 -1.69689 1.74389
O 12.7698 -4.16636 -3.14484
Si 14.1571 -5.01228 -2.89608
Si 11.1552 -3.949 -3.08382
O 13.262 -2.2631 -1.00755
Si 14.8728 -2.19656 -1.30791
Si 11.7346 -1.74756 -1.21097
O 15.3649 -2.24704 0.31488
O 11.2201 -1.37446 0.254284
O 12.5658 -4.80673 3.81994
Si 14.1586 -5.05583 3.5195
Si 11.1682 -4.00331 3.61642
O 14.6314 -5.20146 5.14229
O 10.7363 -3.53705 5.08168
O 14.5214 5.2275 2.72542
O 10.6733 3.64238 2.90896
O 15.2621 2.29405 -2.10215
O 11.1787 1.4902 -1.91846
O 14.3901 5.18046 -2.10451
O 11.0741 3.66554 -2.53453
O 15.1243 2.27361 2.72308
O 11.5763 1.43468 2.29316
O 12.9326 3.63018 1.68293
Si 14.5561 3.6976 1.93177
Si 11.4694 2.91385 1.74381
O 13.3922 1.03741 -3.14445
Si 14.9976 0.786783 -2.89578
Si 11.8173 0.620336 -3.08362
O 13.1187 2.98431 -1.00748
Si 14.5815 3.66222 -1.3078
Si 11.5104 2.87619 -1.21107
O 15.0555 3.80388 0.315002
O 10.8922 3.02392 0.254207
O 13.4488 0.367754 3.8201
Si 15.0157 0.747225 3.51975
Si 11.8502 0.575383 3.6166
O 15.5082 0.793601 5.14257
O 11.2727 0.84077 5.08189
O 11.4152 10.3865 12.3804
O 8.46681 7.44927 12.5639
O 13.2223 7.95996 7.55288
O 9.75736 5.6544 7.73628
O 11.3119 10.2927 7.55041
O 8.82796 7.62414 7.12051
O 13.1028 7.88824 12.378
O 10.1464 5.75564 11.948
O 10.5587 8.30292 11.3378
Si 12.0328 8.98638 11.5867
Si 9.48109 7.08109 11.3987
O 11.9758 6.08348 6.51048
Si 13.5549 6.46625 6.75926
Si 10.6805 5.09536 6.5712
O 10.9778 7.77709 8.64725
Si 12.0697 8.9633 8.34716
Si 9.53321 7.06172 8.44382
O 12.4534 9.27566 9.96992
O 8.90569 6.96179 9.90915
O 12.2845 5.48627 13.4751
Si 13.5868 6.43658 13.1748
Si 10.7281 5.06646 13.2714
O 14.024 6.66801 14.7976
O 10.093 5.09068 14.7367
O 6.57153 13.9643 12.3804
O 4.97169 10.1224 12.5643
O 9.16948 12.4138 7.55274
O 6.85057 8.95792 7.73652
O 6.51194 13.8383 7.55048
O 5.23834 10.4221 7.12077
O 9.08654 12.302 12.3781
O 7.17135 9.20014 11.9481
O 6.57761 11.7114 11.3378
Si 7.67787 12.9071 11.5867
Si 6.04954 10.1703 11.399
O 8.73582 10.2031 6.51043
Si 10.0483 11.161 6.75913
Si 7.91714 8.79456 6.57127
O 7.16577 11.3863 8.64758
Si 7.72075 12.8999 8.3471
Si 6.10508 10.1724 8.44413
O 7.95583 13.3353 9.96988
O 5.5636 9.83979 9.90944
O 9.24961 9.76944 13.4751
Si 10.0891 11.1458 13.1747
Si 7.97251 8.78582 13.2715
O 10.4045 11.5269 14.7975
O 7.37629 8.56531 14.7367
O 0.727347 15.416 12.3804
O 0.719197 11.2542 12.5641
O 3.72094 14.9779 7.5528
O 2.90106 10.8978 7.7366
O 0.720623 15.2769 7.55057
O 0.851171 11.6333 7.12072
O 3.68718 14.8428 12.378
O 3.10438 11.2435 11.9483
O 1.59521 13.3369 11.338
Si 2.15409 14.8626 11.5868
Si 1.69692 11.7109 11.399
O 4.16647 12.7695 6.51026
Si 5.01228 14.1569 6.75913
Si 3.94902 11.1549 6.57141
O 2.26296 13.2618 8.64762
Si 2.1965 14.8726 8.3472
Si 1.74745 11.7344 8.44409
O 2.24704 15.3647 9.97
O 1.37443 11.2198 9.90934
O 4.80654 12.5656 13.4753
Si 5.05578 14.1583 13.1747
Si 4.00325 11.168 13.2716
O 5.20144 14.6312 14.7975
O 3.53704 10.736 14.7369
O -5.22756 14.521 12.3807
O -3.64259 10.6728 12.5642
O -2.29412 15.2617 7.55299
O -1.49025 11.1783 7.73655
O -5.18051 14.3897 7.55079
O -3.66576 11.0737 7.12075
O -2.27368 15.1238 12.3782
O -1.43487 11.5758 11.9483
O -3.63035 12.9321 11.3382
Si -3.69769 14.5556 11.587
Si -2.91407 11.4688 11.399
O -1.0375 13.3918 6.51055
Si -0.78687 14.9973 6.7593
Si -0.620435 11.817 6.57139
O -2.98416 13.1183 8.64758
Si -3.66223 14.581 8.34741
Si -2.87618 11.5099 8.44408
O -3.8039 15.055 9.97022
O -3.02408 10.8918 9.90934
O -0.367723 13.4483 13.475
Si -0.747267 15.0152 13.1748
Si -0.575441 11.8498 13.2716
O -0.793698 15.5078 14.7976
O -0.840819 11.2723 14.7369
O -10.3868 11.4151 12.3807
O -7.44961 8.4667 12.5644
O -7.9601 13.2221 7.55318
O -5.6547 9.75702 7.73668
O -10.293 11.3117 7.55076
O -7.62436 8.82768 7.12096
O -7.88839 13.1026 12.3783
O -5.75598 10.1464 11.9483
O -8.30326 10.5585 11.3383
Si -8.98663 12.0327 11.5871
Si -7.08141 9.48094 11.3992
O -6.08374 11.9754 6.51098
Si -6.46636 13.5546 6.75952
Si -5.09564 10.6801 6.57154
O -7.77738 10.9776 8.64762
Si -8.96354 12.0695 8.34748
Si -7.06202 9.53299 8.44428
O -9.27586 12.4533 9.97025
O -6.96213 8.9055 9.90962
O -5.48622 12.2843 13.4753
Si -6.43666 13.5865 13.1751
Si -5.06657 10.7279 13.2717
O -6.66806 14.0237 14.7979
O -5.09099 10.0927 14.737
O -13.9647 6.57142 12.3805
O -10.1229 4.97157 12.5644
O -12.4142 9.16936 7.55295
O -8.95836 6.85042 7.7368
O -13.8387 6.51181 7.55062
O -10.4227 5.23825 7.12083
O -12.3023 9.08643 12.3783
O -9.20029 7.171 11.9484
O -11.7117 6.57764 11.3379
Si -12.9075 7.67776 11.5869
Si -10.1706 6.04944 11.3991
O -10.2033 8.73574 6.51064
Si -11.1613 10.0482 6.7594
Si -8.79483 7.917 6.5716
O -11.3868 7.16557 8.64785
Si -12.9004 7.72064 8.34728
Si -10.1729 6.1049 8.44423
O -13.3357 7.95573 9.97007
O -9.84023 5.56345 9.90954
O -9.76996 9.24922 13.4755
Si -11.1462 10.0889 13.175
Si -8.78619 7.97224 13.2718
O -11.5273 10.4044 14.7978
O -8.56556 7.37612 14.7371
O -15.4162 0.727137 12.3807
O -11.2545 0.719224 12.5644
O -14.9782 3.72067 7.55303
O -10.898 2.90092 7.73668
O -15.2769 0.720342 7.55086
O -11.633 0.850837 7.12104
O -14.8431 3.68699 12.3781
O -11.2443 3.10445 11.9484
O -13.3372 1.59492 11.3381
Si -14.8629 2.15385 11.587
Si -11.7112 1.69681 11.3992
O -12.77 4.16617 6.51054
Si -14.1573 5.01211 6.75931
Si -11.1555 3.94886 6.57151
O -13.2618 2.26275 8.64764
Si -14.8727 2.19623 8.34743
Si -11.7345 1.74723 8.4443
O -15.3649 2.24675 9.97018
O -11.22 1.37435 9.90962
O -12.566 4.80665 13.4754
Si -14.1588 5.05567 13.1749
Si -11.1685 4.00324 13.2718
O -14.6317 5.20127 14.7977
O -10.7366 3.53693 14.737
O -14.5211 -5.22775 12.381
O -10.6731 -3.64255 12.5647
O -15.2619 -2.29431 7.55332
O -11.1783 -1.49059 7.73687
O -14.3899 -5.18073 7.55109
O -11.0743 -3.66592 7.12112
O -15.124 -2.27386 12.3786
O -11.5762 -1.43491 11.9486
O -12.9323 -3.6306 11.3388
Si -14.5558 -3.69788 11.5873
Si -11.4691 -2.91416 11.3995
O -13.3918 -1.03776 6.51096
Si -14.9973 -0.787114 6.75961
Si -11.8169 -0.620732 6.5717
O -13.1186 -2.98428 8.64799
Si -14.5813 -3.66245 8.34775
Si -11.5102 -2.87638 8.44457
O -15.0553 -3.80407 9.97056
O -10.8921 -3.02427 9.90983
O -13.4485 -0.367836 13.4754
Si -15.0154 -0.747436 13.1751
Si -11.8499 -0.575445 13.2719
O -15.5078 -0.793882 14.798
O -11.2724 -0.840961 14.7372
O -11.4151 -10.3868 12.3807
O -8.46653 -7.44967 12.5643
O -13.2221 -7.96028 7.5533
O -9.75731 -5.65473 7.73695
O -11.3119 -10.2931 7.5507
O -8.8278 -7.62428 7.12088
O -13.1027 -7.88853 12.3785
O -10.1459 -5.75569 11.9486
O -10.5587 -8.30289 11.3382
Si -12.0327 -8.98659 11.5871
Si -9.48086 -7.08122 11.3992
O -11.9757 -6.08382 6.51107
Si -13.5548 -6.46655 6.75974
Si -10.6804 -5.09569 6.57185
O -10.9775 -7.77773 8.6479
Si -12.0695 -8.96368 8.34753
Si -9.53301 -7.0621 8.44432
O -12.4533 -9.27596 9.97032
O -8.90547 -6.96204 9.90963
O -12.2841 -5.48655 13.4755
Si -13.5865 -6.43683 13.1753
Si -10.7278 -5.06663 13.2721
O -14.0238 -6.66826 14.7981
O -10.0928 -5.09092 14.7374
O -6.57147 -13.9647 12.3804
O -4.97164 -10.1229 12.5642
O -9.16946 -12.4142 7.55282
O -6.85059 -8.95832 7.73662
O -6.51187 -13.8386 7.55047
O -5.23829 -10.4225 7.12064
O -9.08651 -12.3024 12.3781
O -7.17123 -9.20054 11.9482
O -6.57769 -11.7118 11.3376
Si -7.67784 -12.9075 11.5867
Si -6.04952 -10.1707 11.3989
O -8.73602 -10.2032 6.51043
Si -10.0483 -11.1614 6.7593
Si -7.9172 -8.79479 6.57144
O -7.16571 -11.3867 8.64756
Si -7.72071 -12.9003 8.34713
Si -6.105 -10.1728 8.44402
O -7.95578 -13.3358 9.96989
O -5.56353 -9.84026 9.90935
O -9.2493 -9.77002 13.4754
Si -10.089 -11.1463 13.1749
Si -7.97227 -8.78633 13.2717
O -10.4045 -11.5274 14.7977
O -7.37621 -8.56565 14.7369
O -0.727285 -15.4163 12.3806
O -0.719248 -11.2545 12.5643
O -3.72077 -14.9781 7.55286
O -2.9009 -10.8979 7.73651
O -0.720494 -15.2769 7.5508
O -0.850941 -11.6332 7.12091
O -3.68706 -14.8431 12.378
O -3.10448 -11.2441 11.9482
O -1.59501 -13.3371 11.338
Si -2.15396 -14.8629 11.5869
Si -1.69685 -11.7112 11.3991
O -4.16627 -12.7698 6.5104
Si -5.01216 -14.1572 6.75916
Si -3.94889 -11.1552 6.57135
O -2.26298 -13.2618 8.64748
Si -2.19638 -14.8726 8.34733
Si -1.74733 -11.7345 8.44418
O -2.24689 -15.3648 9.97008
O -1.37438 -11.22 9.90949
O -4.80666 -12.5659 13.4752
Si -5.05572 -14.1587 13.1747
Si -4.00328 -11.1684 13.2716
O -5.20132 -14.6315 14.7975
O -3.53697 -10.7364 14.7368
O 5.22762 -14.5213 12.3808
O 3.64247 -10.6733 12.5645
O 2.29419 -15.262 7.55323
O 1.49052 -11.1784 7.73681
O 5.18065 -14.3901 7.5509
O 3.66577 -11.0742 7.12093
O 2.27372 -15.1242 12.3785
O 1.43475 -11.5763 11.9485
O 3.63037 -12.9325 11.3385
Si 3.69773 -14.556 11.5872
Si 2.91396 -11.4693 11.3993
O 1.03774 -13.3919 6.51101
Si 0.786974 -14.9974 6.75954
Si 0.62066 -11.8171 6.57166
O 2.9844 -13.1186 8.64788
Si 3.66237 -14.5814 8.34758
Si 2.87637 -11.5103 8.44443
O 3.80397 -15.0554 9.97038
O 3.02408 -10.8922 9.90972
O 0.367671 -13.4487 13.4753
Si 0.747297 -15.0155 13.1751
Si 0.575335 -11.8501 13.2719
O 0.793693 -15.508 14.7979
O 0.840913 -11.2726 14.7371
O 10.3867 -11.4152 12.3803
O 7.44955 -8.46673 12.5639
O 7.96017 -13.2223 7.55302
O 5.65471 -9.75741 7.73652
O 10.293 -11.312 7.55035
O 7.62431 -8.828 7.12046
O 7.88841 -13.1029 12.3781
O 5.75565 -10.1461 11.9482
O 8.30286 -10.5589 11.3378
Si 8.98652 -12.0329 11.5868
Si 7.08117 -9.48109 11.3988
O 6.08363 -11.9758 6.51067
Si 6.46643 -13.555 6.75947
Si 5.09556 -10.6805 6.5715
O 7.77759 -10.9777 8.64749
Si 8.96359 -12.0697 8.34721
Si 7.06209 -9.5332 8.44389
O 9.27589 -12.4535 9.96999
O 6.96202 -8.90569 9.90922
O 5.48657 -12.2843 13.4753
Si 6.43674 -13.5867 13.175
Si 5.06662 -10.728 13.2717
O 6.66816 -14.024 14.7978
O 5.09084 -10.0929 14.737
O 13.9645 -6.57159 12.3803
O 10.1227 -4.97161 12.564