3120
 Atoms. Timestep: 26318
O 21.7599 2.99112 1.24298
Si 23.3734 2.90377 1.51694
Si 20.2093 2.51198 1.37934
O 21.8893 -0.309529 3.27651
Si 23.4806 0.0160866 3.06481
Si 20.3088 0.0305428 3.14628
O 23.9023 0.0662366 4.67931
O 23.8044 1.46754 2.2792
O 23.8715 -1.41187 2.26024
O 19.7135 0.30736 4.61742
O 20.0247 1.03109 1.92152
O 19.615 -1.14241 2.29414
O 21.2347 5.44626 -3.03395
Si 22.8501 5.81066 -3.13326
Si 19.6045 5.2787 -3.25228
O 21.6054 3.05969 -1.74354
Si 23.2553 2.95079 -1.67645
Si 19.9947 2.74285 -1.63645
O 23.7986 2.9399 -0.0991756
O 23.5418 4.45963 -2.38916
O 23.7323 1.53154 -2.44977
O 19.5635 2.70028 -0.0831294
O 19.2604 3.93261 -2.43617
O 19.5799 1.38729 -2.39387
O 20.6346 8.09652 1.31813
Si 22.2067 8.45563 1.60262
Si 19.2792 7.2135 1.50757
O 21.5559 4.97301 3.46377
Si 23.0063 5.66606 3.1361
Si 19.9561 4.8287 3.24005
O 23.3955 5.87283 4.74742
O 22.9718 7.14718 2.33586
O 23.6859 4.34743 2.33018
O 19.242 5.13902 4.64164
O 19.553 5.72075 1.97271
O 19.626 3.41723 2.56454
O 19.4222 10.7478 -3.43074
Si 20.9569 11.2179 -3.08829
Si 18.0154 9.97324 -3.15163
O 20.6243 7.83931 -1.33739
Si 22.0905 8.54287 -1.57001
Si 19.0032 7.63677 -1.45475
O 22.6425 8.66759 0.00245175
O 21.8657 10.0556 -2.27647
O 22.9193 7.33197 -2.40455
O 18.5852 7.26212 0.0563233
O 18.1839 8.90946 -1.96315
O 18.7961 6.4591 -2.52554
O 18.5622 12.3123 1.27542
Si 19.6686 13.4779 1.61809
Si 17.1794 11.4935 1.53733
O 19.7258 10.1637 3.55094
Si 21.0951 11.0292 3.20552
Si 18.3025 9.35731 3.3648
O 21.5036 11.3557 4.79367
O 20.7742 12.4735 2.40248
O 22.0956 9.91085 2.44278
O 17.6539 9.37764 4.84433
O 17.4602 10.0551 2.18462
O 18.5031 7.90396 2.7272
O 16.6741 14.7043 -3.43193
Si 17.7759 15.8888 -3.15711
Si 15.2434 13.9299 -3.26074
O 18.0349 12.9976 -1.22371
Si 19.5051 13.6886 -1.54007
Si 16.6899 12.0659 -1.38898
O 20.0182 13.8882 0.0373125
O 19.0045 15.1025 -2.31206
O 20.5998 12.6809 -2.3285
O 16.4338 11.4955 0.10287
O 15.4898 12.8996 -2.05229
O 16.9134 10.961 -2.538
O 15.0519 16.3563 1.20227
Si 15.8951 17.7453 1.51258
Si 13.9581 15.1408 1.36697
O 16.5736 14.8145 3.40577
Si 17.8785 15.7713 3.13075
Si 15.6372 13.4832 3.23844
O 18.2205 16.1793 4.71387
O 17.2412 17.0849 2.28727
O 19.0884 14.8346 2.42837
O 15.0052 13.319 4.71671
O 14.6395 13.849 2.03277
O 16.4128 12.1711 2.77386
O 12.4367 18.3638 -3.58397
Si 13.4445 19.6324 -3.23952
Si 11.462 17.0508 -3.39248
O 14.4201 16.9746 -1.30154
Si 15.708 17.9355 -1.64585
Si 13.4485 15.6938 -1.55881
O 16.154 18.2336 -0.0640104
O 14.8418 19.1493 -2.43477
O 16.9878 17.2 -2.45485
O 13.3623 14.9537 -0.124696
O 12.0528 16.1367 -2.20814
O 14.0319 14.8545 -2.79617
O 10.1961 19.5344 1.35721
Si 11.08 20.9129 1.53652
Si 9.80282 17.9405 1.42627
O 12.9199 18.0212 3.40354
Si 13.6004 19.4728 3.05344
Si 12.015 16.6941 3.12102
O 13.8103 19.9997 4.62519
O 12.5572 20.517 2.24305
O 15.0128 18.9449 2.29875
O 11.4018 16.3972 4.58669
O 10.9498 16.9615 1.95291
O 12.8869 15.4951 2.51477
O 7.48767 20.8092 -3.48839
Si 8.34293 22.1717 -3.16101
Si 7.15604 19.236 -3.26575
O 10.4833 19.52 -1.34984
Si 11.0198 21.0389 -1.63755
Si 9.44931 18.2781 -1.54074
O 11.2771 21.4399 -0.0357995
O 9.81273 21.9568 -2.36838
O 12.451 20.7571 -2.4782
O 9.41083 17.577 -0.0936224
O 7.99907 18.7252 -2.00405
O 10.0424 17.4276 -2.76082
O 5.12139 21.1869 1.7042
Si 5.65055 22.7514 1.6636
Si 5.02697 19.5456 1.62327
O 8.23884 20.3564 3.14755
Si 8.47379 21.9935 3.11557
Si 7.56175 18.8601 3.22657
O 8.58857 22.549 4.68387
O 7.18398 22.7652 2.35872
O 9.98422 21.9073 2.35329
O 7.35122 18.4934 4.77997
O 6.17961 18.7518 2.41292
O 8.57606 17.8735 2.46258
O 2.30856 21.7926 -3.28107
Si 2.79804 23.3413 -3.05331
Si 2.42705 20.1752 -3.16794
O 5.51724 21.2508 -1.25808
Si 5.65024 22.8633 -1.52775
Si 4.88259 19.7558 -1.40009
O 5.73635 23.2878 0.0862132
O 4.28433 23.4822 -2.28402
O 7.1196 22.9986 -2.34307
O 4.96986 19.1063 0.071555
O 3.40959 19.6831 -1.99389
O 5.72623 19.0642 -2.57228
O -0.325777 21.7673 1.82748
Si -0.0772622 23.4023 1.76733
Si -0.171622 20.1321 1.70865
O 2.8555 21.5643 3.10782
Si 2.84302 23.2154 3.20605
Si 2.496 19.9637 3.24861
O 2.89762 23.749 4.78509
O 1.40532 23.7319 2.49558
O 4.33509 23.4767 2.44612
O 2.52226 19.538 4.81012
O 1.11096 19.5778 2.51652
O 3.6571 19.2185 2.41099
O -2.91486 21.778 -3.22642
Si -2.86455 23.3929 -2.9463
Si -2.42808 20.2303 -3.07234
O 0.358307 21.9376 -1.17298
Si 0.0313525 23.526 -1.42311
Si 0.0614814 20.3471 -1.3153
O -0.0406313 23.9468 0.191443
O -1.42532 23.8386 -2.20138
O 1.44836 23.9408 -2.23898
O -0.17267 19.7137 0.146159
O -0.948387 20.0434 -2.5282
O 1.21656 19.6935 -2.22315
O -5.76023 21.2169 1.64391
Si -5.80599 22.8529 1.86016
Si -5.28704 19.6482 1.73998
O -2.56151 21.6691 3.36824
Si -2.91228 23.2802 3.32358
Si -2.70471 20.0307 3.37508
O -2.92373 23.8349 4.89755
O -4.43764 23.4534 2.63329
O -1.52964 23.8401 2.52328
O -2.6007 19.5779 4.92024
O -4.02585 19.4129 2.70731
O -1.45431 19.5375 2.48514
O -8.01607 20.6097 -3.09993
Si -8.40166 22.1803 -2.81895
Si -7.13337 19.244 -2.9345
O -4.94045 21.532 -0.973277
Si -5.61225 22.9965 -1.30614
Si -4.74038 19.9324 -1.20531
O -5.82926 23.4293 0.293506
O -7.09451 22.9583 -2.10089
O -4.3029 23.6843 -2.11769
O -4.99188 19.2218 0.214104
O -5.6361 19.4827 -2.45667
O -3.32383 19.6382 -1.88524
O -10.792 19.3773 1.66462
Si -11.1975 20.944 1.97441
Si -9.95335 17.9887 1.86555
O -7.80785 20.6106 3.68792
Si -8.50592 22.0817 3.46509
Si -7.60773 18.9888 3.55433
O -8.62584 22.6223 5.0403
O -10.0221 21.8509 2.76923
O -7.30659 22.9332 2.63539
O -7.20033 18.5657 5.0585
O -8.88227 18.169 3.05012
O -6.45666 18.8053 2.44873
O -12.5854 18.2426 -3.02774
Si -13.4457 19.5984 -2.69583
Si -11.4499 17.0945 -2.77847
O -9.94025 19.8488 -0.845023
Si -10.9627 21.0982 -1.18166
Si -9.29101 18.3626 -1.05056
O -11.3217 21.4907 0.401717
O -12.3861 20.6927 -1.98208
O -9.8587 22.0961 -1.97668
O -9.36794 17.6573 0.398297
O -10.0368 17.6399 -2.27789
O -7.83873 18.4683 -1.71983
O -15.0106 16.3374 1.69784
Si -15.8566 17.6989 2.05474
Si -13.908 15.1724 1.98562
O -12.5787 18.2271 3.89279
Si -13.5893 19.4903 3.59431
Si -11.9544 16.7197 3.72464
O -13.8248 19.9777 5.17547
O -14.9861 18.8799 2.8796
O -12.658 20.6216 2.75971
O -11.3806 16.4184 5.20735
O -12.9872 15.611 3.22555
O -10.8837 16.8635 2.53359
O -16.2544 15.0621 -3.01363
Si -17.6639 15.8418 -2.6867
Si -15.1033 13.9359 -2.75922
O -14.5141 16.7297 -0.752954
Si -15.6696 17.8584 -1.10417
Si -13.3327 15.6017 -0.949181
O -16.1093 18.1842 0.475759
O -16.9804 17.1775 -1.9133
O -14.8146 19.1005 -1.85266
O -13.1988 14.9864 0.542853
O -13.7873 14.5894 -2.11549
O -11.9752 16.1916 -1.55939
O -18.0973 12.6635 1.71101
Si -19.5254 13.4213 1.98666
Si -16.9823 11.483 1.89191
O -16.795 14.4211 3.94471
Si -17.8498 15.6518 3.61013
Si -15.5581 13.3533 3.76611
O -18.1626 16.0856 5.1931
O -19.0841 14.8087 2.83293
O -17.1723 16.9712 2.81603
O -14.9145 13.2454 5.24547
O -16.0606 11.9806 3.10851
O -14.5792 13.8503 2.58954
O -19.2293 10.6646 -3.05225
Si -20.8049 11.0857 -2.80297
Si -17.8187 9.83883 -2.91925
O -18.1618 12.4818 -0.935334
Si -19.4166 13.5135 -1.18171
Si -16.6328 11.9085 -1.07178
O -19.9074 13.7561 0.395728
O -20.5274 12.5567 -2.01846
O -18.8245 14.9272 -1.8796
O -16.3162 11.3893 0.424694
O -16.7251 10.7831 -2.21591
O -15.5488 12.9769 -1.55115
O -20.4442 8.05473 1.56415
Si -22.0333 8.34999 1.83316
Si -19.0848 7.16933 1.70567
O -19.7301 9.90012 3.8274
Si -20.989 10.9077 3.49016
Si -18.227 9.30719 3.60269
O -21.3623 11.235 5.08533
O -21.9761 9.80908 2.67521
O -20.596 12.3384 2.69878
O -17.4804 9.38952 5.02471
O -18.2958 7.86399 2.91389
O -17.5657 10.0792 2.36168
O -21.0435 5.40505 -2.76654
Si -22.6781 5.6417 -2.90773
Si -19.4593 5.01304 -3.00824
O -20.4272 7.64724 -1.26596
Si -21.9054 8.37015 -1.34793
Si -18.7998 7.42168 -1.28886
O -22.4504 8.51064 0.223304
O -22.7621 7.1605 -2.16371
O -21.7073 9.89426 -2.03197
O -18.394 7.18092 0.253017
O -18.5974 6.12641 -2.22431
O -17.9059 8.6042 -1.89598
O -21.6206 2.558 1.46444
Si -23.2402 2.78021 1.74992
Si -19.9884 2.37897 1.59902
O -21.3816 4.82789 3.61964
Si -22.8236 5.55146 3.35438
Si -19.7779 4.76764 3.43429
O -23.2092 5.72733 4.96907
O -23.4999 4.24728 2.52828
O -22.7869 7.03883 2.57011
O -19.0899 4.96788 4.87432
O -19.3599 3.45696 2.61081
O -19.3642 5.68403 2.18451
O -21.7315 -0.398636 -2.8418
Si -23.3584 -0.114794 -2.90942
Si -20.1019 -0.250689 -3.00466
O -21.4796 2.75184 -1.27529
Si -23.1215 2.78698 -1.43216
Si -19.8794 2.4098 -1.44479
O -23.6829 2.83813 0.139149
O -23.6504 1.37391 -2.17802
O -23.3589 4.27792 -2.18496
O -19.3842 2.30966 0.0995746
O -19.5363 1.08091 -2.2933
O -19.171 3.61276 -2.25779
O -21.7672 -3.00391 1.55771
Si -23.3796 -2.90689 1.82968
Si -20.2306 -2.48643 1.69649
O -21.9039 0.335748 3.61028
Si -23.4835 -0.00604051 3.35597
Si -20.3296 0.00812699 3.43409
O -23.9052 -0.0704939 4.97042
O -23.8035 -1.45953 2.57356
O -23.8411 1.4184 2.53068
O -19.7115 -0.319713 4.88284
O -20.118 -0.983771 2.19065
O -19.6195 1.18146 2.60331
O -21.2032 -5.79501 -3.03821
Si -22.8386 -5.84293 -2.81501
Si -19.6289 -5.33904 -2.9376
O -21.6418 -2.6097 -1.34551
Si -23.2568 -2.94924 -1.35539
Si -20.0036 -2.75744 -1.30535
O -23.8134 -2.95826 0.217266
O -23.4382 -4.47417 -2.04333
O -23.8109 -1.56184 -2.15164
O -19.5663 -2.66816 0.243162
O -19.3835 -4.07481 -1.97747
O -19.5016 -1.49909 -2.17915
O -20.6091 -8.05359 1.68111
Si -22.1812 -8.43504 1.96179
Si -19.2345 -7.18369 1.84797
O -21.5113 -4.98735 3.80704
Si -22.9828 -5.64621 3.475
Si -19.9108 -4.78288 3.57339
O -23.4164 -5.86412 5.07375
O -22.9546 -7.12639 2.67875
O -23.6756 -4.33961 2.66548
O -19.2007 -5.04062 4.99202
O -19.4555 -5.68298 2.32667
O -19.6307 -3.36144 2.89516
O -19.3968 -10.8488 -3.00574
Si -20.9666 -11.2432 -2.69729
Si -18.0019 -10.02 -2.80591
O -20.6078 -7.85543 -0.983737
Si -22.0831 -8.54415 -1.20747
Si -18.9852 -7.66365 -1.1195
O -22.6248 -8.65871 0.367344
O -21.864 -10.0624 -1.90096
O -22.9267 -7.34176 -2.03935
O -18.5586 -7.25734 0.384763
O -18.1734 -8.94405 -1.62375
O -18.7957 -6.51502 -2.22741
O -18.2728 -12.6633 1.76839
Si -19.6483 -13.4971 2.08875
Si -17.1228 -11.526 2.00613
O -19.8662 -9.98704 3.93825
Si -21.1225 -11.001 3.60244
Si -18.3739 -9.35324 3.73115
O -21.516 -11.3601 5.1852
O -20.7315 -12.4249 2.79812
O -22.1105 -9.89022 2.80643
O -17.6674 -9.43857 5.1797
O -17.6625 -10.1091 2.503
O -18.4652 -7.89942 3.06158
O -16.397 -15.1025 -2.96513
Si -17.7682 -15.9336 -2.61023
Si -15.2198 -14.0119 -2.6785
O -18.2635 -12.6457 -0.779339
Si -19.5356 -13.6457 -1.07475
Si -16.7504 -12.0348 -0.947295
O -20.0286 -13.8724 0.50551
O -18.9379 -15.0513 -1.78227
O -20.6574 -12.7069 -1.91334
O -16.4469 -11.4632 0.536501
O -15.6501 -13.0791 -1.44384
O -16.885 -10.9611 -2.13737
O -15.1596 -16.3649 1.76424
Si -15.9587 -17.7607 2.10242
Si -14.029 -15.2212 2.02943
O -16.8267 -14.5696 4.04068
Si -17.9441 -15.7365 3.68727
Si -15.6627 -13.4241 3.84328
O -18.2646 -16.1774 5.26772
O -17.2817 -17.0529 2.87383
O -19.1773 -14.8719 2.93636
O -15.0311 -13.3069 5.33044
O -14.6724 -13.8967 2.66475
O -16.2222 -12.0559 3.2259
O -12.7306 -18.2448 -2.954
Si -13.5284 -19.6512 -2.67468
Si -11.5462 -17.1325 -2.76098
O -14.504 -16.9098 -0.7175
Si -15.7455 -17.9511 -1.05322
Si -13.4202 -15.6869 -0.896635
O -16.1964 -18.2581 0.526124
O -14.9068 -19.1942 -1.822
O -17.0539 -17.26 -1.85433
O -13.3163 -15.0469 0.586761
O -12.0491 -16.2077 -1.54647
O -13.9061 -14.7001 -2.07265
O -10.8862 -19.4124 1.66867
Si -11.278 -20.9835 1.97592
Si -10.048 -18.0218 1.86117
O -12.6418 -18.292 3.89617
Si -13.6654 -19.5466 3.61489
Si -12.0455 -16.7735 3.73661
O -13.8953 -20.0326 5.19605
O -12.7379 -20.6729 2.7682
O -15.0703 -18.9331 2.91986
O -11.4715 -16.4709 5.21887
O -10.9797 -16.9021 2.53869
O -13.1038 -15.6789 3.26031
O -8.09959 -20.6312 -3.10827
Si -8.47312 -22.2059 -2.83272
Si -7.21842 -19.2632 -2.94906
O -9.99987 -19.9027 -0.84278
Si -11.03 -21.1453 -1.17811
Si -9.37487 -18.4078 -1.05117
O -11.395 -21.5344 0.404358
O -9.92615 -22.1358 -1.98266
O -12.4514 -20.7383 -1.97882
O -9.4655 -17.693 0.392124
O -7.92514 -18.4919 -1.73118
O -10.14 -17.7115 -2.28158
O -5.83539 -21.2275 1.62559
Si -5.87814 -22.8654 1.83461
Si -5.36962 -19.6548 1.7094
O -7.87436 -20.6348 3.66456
Si -8.57374 -22.1068 3.45174
Si -7.68618 -19.0111 3.53711
O -8.69246 -22.6477 5.02636
O -7.37535 -22.9537 2.61561
O -10.0943 -21.8829 2.76541
O -7.28648 -18.5863 5.04313
O -6.53587 -18.8174 2.43134
O -8.96793 -18.1984 3.03843
O -3.05098 -21.8006 -3.25552
Si -2.94549 -23.4131 -2.98709
Si -2.53003 -20.2648 -3.12251
O -5.01138 -21.5477 -0.999786
Si -5.67936 -23.0151 -1.3305
Si -4.81485 -19.9468 -1.23296
O -5.89995 -23.444 0.269234
O -4.37643 -23.7095 -2.14646
O -7.1621 -22.9809 -2.12176
O -5.0801 -19.2325 0.181532
O -3.39837 -19.6624 -1.92011
O -5.71785 -19.4998 -2.47991
O -0.434451 -21.7664 1.78311
Si -0.148504 -23.3927 1.71691
Si -0.279432 -20.1376 1.622
O -2.63797 -21.6729 3.27965
Si -2.9791 -23.2877 3.28118
Si -2.78106 -20.0344 3.32882
O -2.99158 -23.8439 4.854
O -1.59327 -23.8438 2.48167
O -4.50682 -23.4675 2.59939
O -2.70724 -19.6001 4.87869
O -1.51602 -19.534 2.46311
O -4.09042 -19.4067 2.64828
O 2.41212 -21.6763 -3.36073
Si 2.73558 -23.2804 -3.09535
Si 2.32131 -20.0369 -3.24937
O 0.307646 -21.9402 -1.22704
Si -0.0376525 -23.5217 -1.4726
Si -0.0300432 -20.3657 -1.39356
O -0.104744 -23.9406 0.142506
O 1.38253 -23.8911 -2.30257
O -1.49576 -23.838 -2.24826
O -0.358272 -19.7488 0.0551487
O 1.12872 -19.6514 -2.24377
O -1.0253 -20.1588 -2.63504
O 5.29373 -21.0929 1.8306
Si 5.60893 -22.7151 1.68478
Si 4.97674 -19.4915 1.57987
O 2.792 -21.5107 3.24984
Si 2.76562 -23.1599 3.17333
Si 2.3942 -19.9167 3.15973
O 2.80854 -23.712 4.7469
O 4.25623 -23.4135 2.41781
O 1.34371 -23.6835 2.44101
O 2.27978 -19.4346 4.70532
O 3.58899 -19.1882 2.34994
O 1.06436 -19.5763 2.31211
O 8.00431 -20.477 -3.31553
Si 8.315 -22.0627 -3.0426
Si 7.11295 -19.122 -3.1679
O 4.80016 -21.4214 -1.22897
Si 5.52311 -22.8601 -1.50859
Si 4.72321 -19.8216 -1.42865
O 5.69622 -23.2463 0.106805
O 7.00846 -22.8201 -2.29871
O 4.21103 -23.5268 -2.32976
O 4.92473 -19.127 0.00761796
O 5.63064 -19.4092 -2.6849
O 3.39964 -19.416 -2.23416
O 10.6178 -19.249 1.4979
Si 11.0475 -20.8193 1.75992
Si 9.78826 -17.8442 1.65059
O 7.61874 -20.4605 3.35117
Si 8.34347 -21.9336 3.23219
Si 7.38868 -18.8361 3.29719
O 8.48392 -22.4822 4.80294
O 9.86275 -21.7257 2.53846
O 7.13235 -22.7858 2.41625
O 7.12366 -18.4295 4.83486
O 8.58214 -17.9476 2.70575
O 6.10783 -18.6381 2.34396
O 12.5632 -18.1306 -3.23774
Si 13.371 -19.5215 -2.92192
Si 11.415 -16.9922 -3.01166
O 9.87077 -19.7315 -1.06327
Si 10.8743 -20.9943 -1.40209
Si 9.25155 -18.2368 -1.28344
O 11.2004 -21.3727 0.192376
O 12.3038 -20.5998 -2.19636
O 9.77714 -21.9904 -2.20732
O 9.31775 -17.5032 0.146878
O 10.0055 -17.5475 -2.52126
O 7.80527 -18.3284 -1.962
O 14.9426 -16.2795 1.48051
Si 15.7745 -17.6505 1.83187
Si 13.8509 -15.1034 1.76483
O 12.4569 -18.147 3.63329
Si 13.4749 -19.4104 3.36522
Si 11.8545 -16.6292 3.48383
O 13.7198 -19.9021 4.94303
O 14.8808 -18.8199 2.64985
O 12.5177 -20.5274 2.53903
O 11.327 -16.3163 4.97877
O 12.8978 -15.5302 2.98329
O 10.7314 -16.7418 2.3398
O 16.2252 -15.0344 -3.24754
Si 17.6281 -15.8233 -2.91599
Si 15.0904 -13.8941 -2.9898
O 14.4469 -16.6847 -0.98005
Si 15.6076 -17.8109 -1.32832
Si 13.2963 -15.5242 -1.17285
O 16.0328 -18.1389 0.255031
O 16.9282 -17.145 -2.13364
O 14.7513 -19.0466 -2.08459
O 13.1628 -14.9024 0.314801
O 13.7656 -14.525 -2.34395
O 11.932 -16.0839 -1.79486
O 18.0877 -12.6452 1.48584
Si 19.5086 -13.4193 1.75585
Si 16.9864 -11.4503 1.6624
O 16.7689 -14.3809 3.70684
Si 17.8037 -15.6305 3.38004
Si 15.538 -13.3046 3.53611
O 18.1172 -16.0707 4.96111
O 19.0492 -14.8026 2.60143
O 17.1018 -16.9416 2.59216
O 14.9085 -13.19 5.021
O 16.0524 -11.9378 2.87417
O 14.5382 -13.7911 2.37278
O 19.2529 -10.6901 -3.31302
Si 20.8253 -11.1084 -3.04279
Si 17.8509 -9.85596 -3.16183
O 18.1657 -12.4761 -1.15496
Si 19.4107 -13.5162 -1.41262
Si 16.6418 -11.8928 -1.29908
O 19.8926 -13.7624 0.167194
O 20.5319 -12.573 -2.25127
O 18.8011 -14.9215 -2.11242
O 16.3288 -11.3534 0.190983
O 16.747 -10.793 -2.4664
O 15.5532 -12.9582 -1.77076
O 20.4805 -8.05633 1.32056
Si 22.0669 -8.36563 1.59175
Si 19.1288 -7.15829 1.46313
O 19.7556 -9.89388 3.58928
Si 21.0028 -10.9165 3.25171
Si 18.258 -9.28383 3.36891
O 21.3797 -11.2547 4.84382
O 21.9982 -9.82337 2.43708
O 20.5918 -12.3445 2.46293
O 17.5177 -9.3632 4.79491
O 18.34 -7.84175 2.67835
O 17.5836 -10.0515 2.13164
O 21.0631 -5.60928 -3.16445
Si 22.7148 -5.68079 -3.16944
Si 19.5088 -5.08557 -3.28088
O 20.4689 -7.67141 -1.47603
Si 21.9441 -8.39626 -1.58727
Si 18.8404 -7.45456 -1.52286
O 22.488 -8.53876 -0.0156892
O 22.8069 -7.19129 -2.40452
O 21.7322 -9.91895 -2.27218
O 18.4355 -7.17427 0.0120913
O 18.6366 -6.19342 -2.50176
O 17.9626 -8.66583 -2.09016
O 21.6708 -2.40732 1.2507
Si 23.2676 -2.77849 1.4855
Si 20.0299 -2.36921 1.34191
O 21.424 -4.85254 3.40181
Si 22.8671 -5.56144 3.10146
Si 19.8262 -4.75779 3.18088
O 23.2705 -5.74221 4.7133
O 23.5162 -4.24764 2.26553
O 22.8257 -7.0513 2.31996
O 19.1215 -4.97237 4.61041
O 19.4314 -3.42005 2.39821
O 19.4257 -5.67233 1.92803
O 21.7248 -0.104132 -3.12525
Si 23.3661 0.0653384 -3.19608
Si 20.1069 0.150113 -3.27579
O 21.5522 -2.40842 -1.67204
Si 23.1577 -2.79645 -1.70274
Si 19.9065 -2.45624 -1.70639
O 23.6959 -2.85995 -0.125941
O 23.7592 -1.40717 -2.45794
O 23.3383 -4.3067 -2.42334
O 19.4277 -2.39498 -0.157573
O 19.4704 -1.15751 -2.56731
O 19.2551 -3.70822 -2.48422
O 21.7599 2.99112 10.6975
Si 23.3734 2.90377 10.9715
Si 20.2093 2.51198 10.8339
O 21.8893 -0.309529 12.731
Si 23.4806 0.0160866 12.5193
Si 20.3088 0.0305428 12.6008
O 23.9023 0.0662366 14.1338
O 23.8044 1.46754 11.7337
O 23.8715 -1.41187 11.7148
O 19.7135 0.30736 14.0719
O 20.0247 1.03109 11.376
O 19.615 -1.14241 11.7487
O 21.2347 5.44626 6.42057
Si 22.8501 5.81066 6.32126
Si 19.6045 5.2787 6.20224
O 21.6054 3.05969 7.71099
Si 23.2553 2.95079 7.77807
Si 19.9947 2.74285 7.81807
O 23.7986 2.9399 9.35535
O 23.5418 4.45963 7.06536
O 23.7323 1.53154 7.00475
O 19.5635 2.70028 9.37139
O 19.2604 3.93261 7.01835
O 19.5799 1.38729 7.06065
O 20.6346 8.09652 10.7727
Si 22.2067 8.45563 11.0571
Si 19.2792 7.2135 10.9621
O 21.5559 4.97301 12.9183
Si 23.0063 5.66606 12.5906
Si 19.9561 4.8287 12.6946
O 23.3955 5.87283 14.2019
O 22.9718 7.14718 11.7904
O 23.6859 4.34743 11.7847
O 19.242 5.13902 14.0962
O 19.553 5.72075 11.4272
O 19.626 3.41723 12.0191
O 19.4222 10.7478 6.02378
Si 20.9569 11.2179 6.36623
Si 18.0154 9.97324 6.30289
O 20.6243 7.83931 8.11713
Si 22.0905 8.54287 7.88451
Si 19.0032 7.63677 7.99977
O 22.6425 8.66759 9.45697
O 21.8657 10.0556 7.17805
O 22.9193 7.33197 7.04998
O 18.5852 7.26212 9.51084
O 18.1839 8.90946 7.49138
O 18.7961 6.4591 6.92898
O 18.5622 12.3123 10.7299
Si 19.6686 13.4779 11.0726
Si 17.1794 11.4935 10.9919
O 19.7258 10.1637 13.0055
Si 21.0951 11.0292 12.66
Si 18.3025 9.35731 12.8193
O 21.5036 11.3557 14.2482
O 20.7742 12.4735 11.857
O 22.0956 9.91085 11.8973
O 17.6539 9.37764 14.2988
O 17.4602 10.0551 11.6391
O 18.5031 7.90396 12.1817
O 16.6741 14.7043 6.0226
Si 17.7759 15.8888 6.29741
Si 15.2434 13.9299 6.19379
O 18.0349 12.9976 8.23081
Si 19.5051 13.6886 7.91445
Si 16.6899 12.0659 8.06554
O 20.0182 13.8882 9.49183
O 19.0045 15.1025 7.14246
O 20.5998 12.6809 7.12602
O 16.4338 11.4955 9.55739
O 15.4898 12.8996 7.40224
O 16.9134 10.961 6.91652
O 15.0519 16.3563 10.6568
Si 15.8951 17.7453 10.9671
Si 13.9581 15.1408 10.8215
O 16.5736 14.8145 12.8603
Si 17.8785 15.7713 12.5853
Si 15.6372 13.4832 12.693
O 18.2205 16.1793 14.1684
O 17.2412 17.0849 11.7418
O 19.0884 14.8346 11.8829
O 15.0052 13.319 14.1712
O 14.6395 13.849 11.4873
O 16.4128 12.1711 12.2284
O 12.4367 18.3638 5.87055
Si 13.4445 19.6324 6.215
Si 11.462 17.0508 6.06205
O 14.4201 16.9746 8.15298
Si 15.708 17.9355 7.80867
Si 13.4485 15.6938 7.89571
O 16.154 18.2336 9.39051
O 14.8418 19.1493 7.01975
O 16.9878 17.2 6.99967
O 13.3623 14.9537 9.32983
O 12.0528 16.1367 7.24638
O 14.0319 14.8545 6.65836
O 10.1961 19.5344 10.8117
Si 11.08 20.9129 10.991
Si 9.80282 17.9405 10.8808
O 12.9199 18.0212 12.8581
Si 13.6004 19.4728 12.508
Si 12.015 16.6941 12.5755
O 13.8103 19.9997 14.0797
O 12.5572 20.517 11.6976
O 15.0128 18.9449 11.7533
O 11.4018 16.3972 14.0412
O 10.9498 16.9615 11.4074
O 12.8869 15.4951 11.9693
O 7.48767 20.8092 5.96614
Si 8.34293 22.1717 6.29351
Si 7.15604 19.236 6.18877
O 10.4833 19.52 8.10468
Si 11.0198 21.0389 7.81697
Si 9.44931 18.2781 7.91379
O 11.2771 21.4399 9.41872
O 9.81273 21.9568 7.08615
O 12.451 20.7571 6.97632
O 9.41083 17.577 9.3609
O 7.99907 18.7252 7.45047
O 10.0424 17.4276 6.6937
O 5.12139 21.1869 11.1587
Si 5.65055 22.7514 11.1181
Si 5.02697 19.5456 11.0778
O 8.23884 20.3564 12.6021
Si 8.47379 21.9935 12.5701
Si 7.56175 18.8601 12.6811
O 8.58857 22.549 14.1384
O 7.18398 22.7652 11.8132
O 9.98422 21.9073 11.8078
O 7.35122 18.4934 14.2345
O 6.17961 18.7518 11.8674
O 8.57607 17.8735 11.9171
O 2.30856 21.7926 6.17345
Si 2.79804 23.3413 6.40121
Si 2.42705 20.1752 6.28658
O 5.51724 21.2508 8.19644
Si 5.65024 22.8633 7.92678
Si 4.88259 19.7558 8.05443
O 5.73635 23.2878 9.54073
O 4.28433 23.4822 7.1705
O 7.1196 22.9986 7.11145
O 4.96986 19.1063 9.52608
O 3.40959 19.6831 7.46063
O 5.72623 19.0642 6.88224
O -0.325777 21.7673 11.282
Si -0.077262 23.4023 11.2219
Si -0.171621 20.1321 11.1632
O 2.8555 21.5643 12.5623
Si 2.84302 23.2154 12.6606
Si 2.49601 19.9637 12.7031
O 2.89762 23.749 14.2396
O 1.40532 23.7319 11.9501
O 4.33509 23.4767 11.9006
O 2.52226 19.538 14.2646
O 1.11096 19.5778 11.971
O 3.6571 19.2185 11.8655
O -2.91486 21.778 6.22811
Si -2.86455 23.3929 6.50822
Si -2.42808 20.2303 6.38219
O 0.358307 21.9376 8.28154
Si 0.0313527 23.526 8.03141
Si 0.0614821 20.3471 8.13922
O -0.0406311 23.9468 9.64596
O -1.42532 23.8386 7.25314
O 1.44836 23.9408 7.21555
O -0.172669 19.7137 9.60068
O -0.948386 20.0434 6.92632
O 1.21656 19.6935 7.23137
O -5.76023 21.2169 11.0984
Si -5.80599 22.8529 11.3147
Si -5.28704 19.6482 11.1945
O -2.56151 21.6691 12.8228
Si -2.91228 23.2802 12.7781
Si -2.70471 20.0307 12.8296
O -2.92373 23.8349 14.3521
O -4.43764 23.4534 12.0878
O -1.52964 23.8401 11.9778
O -2.6007 19.5779 14.3748
O -4.02585 19.4129 12.1618
O -1.45431 19.5375 11.9397
O -8.01607 20.6097 6.35459
Si -8.40166 22.1803 6.63557
Si -7.13337 19.244 6.52002
O -4.94045 21.532 8.48124
Si -5.61225 22.9965 8.14838
Si -4.74038 19.9324 8.24921
O -5.82926 23.4293 9.74803
O -7.09451 22.9583 7.35363
O -4.3029 23.6843 7.33683
O -4.99188 19.2218 9.66863
O -5.6361 19.4827 6.99785
O -3.32383 19.6382 7.56928
O -10.792 19.3773 11.1191
Si -11.1975 20.944 11.4289
Si -9.95335 17.9887 11.3201
O -7.80785 20.6106 13.1424
Si -8.50592 22.0817 12.9196
Si -7.60773 18.9888 13.0088
O -8.62584 22.6223 14.4948
O -10.0221 21.8509 12.2238
O -7.30659 22.9332 12.0899
O -7.20033 18.5657 14.513
O -8.88227 18.169 12.5046
O -6.45666 18.8053 11.9032
O -12.5854 18.2426 6.42678
Si -13.4457 19.5984 6.75869
Si -11.4499 17.0945 6.67605
O -9.94025 19.8488 8.6095
Si -10.9627 21.0982 8.27286
Si -9.29101 18.3626 8.40396
O -11.3217 21.4907 9.85624
O -12.3861 20.6927 7.47244
O -9.8587 22.0961 7.47784
O -9.36794 17.6573 9.85282
O -10.0368 17.6399 7.17663
O -7.83873 18.4683 7.73469
O -15.0106 16.3374 11.1524
Si -15.8566 17.6989 11.5093
Si -13.908 15.1724 11.4401
O -12.5787 18.2271 13.3473
Si -13.5893 19.4903 13.0488
Si -11.9544 16.7197 13.1792
O -13.8248 19.9777 14.63
O -14.9861 18.8799 12.3341
O -12.658 20.6216 12.2142
O -11.3806 16.4184 14.6619
O -12.9872 15.611 12.6801
O -10.8837 16.8635 11.9881
O -16.2544 15.0621 6.44089
Si -17.6639 15.8418 6.76783
Si -15.1033 13.9359 6.6953
O -14.5141 16.7297 8.70157
Si -15.6696 17.8584 8.35035
Si -13.3327 15.6017 8.50534
O -16.1093 18.1842 9.93028
O -16.9804 17.1775 7.54122
O -14.8146 19.1005 7.60186
O -13.1988 14.9864 9.99737
O -13.7873 14.5894 7.33904
O -11.9752 16.1916 7.89513
O -18.0973 12.6635 11.1655
Si -19.5254 13.4213 11.4412
Si -16.9823 11.483 11.3464
O -16.795 14.4211 13.3992
Si -17.8498 15.6518 13.0646
Si -15.5581 13.3533 13.2206
O -18.1626 16.0856 14.6476
O -19.0841 14.8087 12.2875
O -17.1723 16.9712 12.2706
O -14.9145 13.2454 14.7
O -16.0606 11.9806 12.563
O -14.5792 13.8503 12.0441
O -19.2293 10.6646 6.40228
Si -20.8049 11.0857 6.65156
Si -17.8187 9.83883 6.53527
O -18.1618 12.4818 8.51919
Si -19.4166 13.5135 8.27281
Si -16.6328 11.9085 8.38274
O -19.9074 13.7561 9.85025
O -20.5274 12.5567 7.43606
O -18.8245 14.9272 7.57492
O -16.3162 11.3893 9.87922
O -16.7251 10.7831 7.23861
O -15.5488 12.9769 7.90337
O -20.4442 8.05473 11.0187
Si -22.0333 8.34999 11.2877
Si -19.0848 7.16933 11.1602
O -19.7301 9.90012 13.2819
Si -20.989 10.9077 12.9447
Si -18.227 9.30719 13.0572
O -21.3623 11.235 14.5398
O -21.9761 9.80908 12.1297
O -20.596 12.3384 12.1533
O -17.4804 9.38952 14.4792
O -18.2958 7.86399 12.3684
O -17.5657 10.0792 11.8162
O -21.0435 5.40505 6.68799
Si -22.6781 5.6417 6.54679
Si -19.4593 5.01304 6.44628
O -20.4272 7.64724 8.18856
Si -21.9054 8.37015 8.10659
Si -18.7998 7.42168 8.16566
O -22.4504 8.51064 9.67783
O -22.7621 7.1605 7.29081
O -21.7073 9.89426 7.42255
O -18.394 7.18092 9.70754
O -18.5974 6.12641 7.23021
O -17.9059 8.6042 7.55854
O -21.6206 2.558 10.919
Si -23.2402 2.78021 11.2044
Si -19.9884 2.37897 11.0535
O -21.3816 4.82789 13.0742
Si -22.8236 5.55146 12.8089
Si -19.7779 4.76764 12.8888
O -23.2092 5.72733 14.4236
O -23.4999 4.24728 11.9828
O -22.7869 7.03883 12.0246
O -19.0899 4.96788 14.3288
O -19.3599 3.45696 12.0653
O -19.3642 5.68403 11.639
O -21.7315 -0.398636 6.61272
Si -23.3584 -0.114794 6.5451
Si -20.1019 -0.250689 6.44986
O -21.4796 2.75184 8.17923
Si -23.1215 2.78698 8.02237
Si -19.8794 2.4098 8.00973
O -23.6829 2.83813 9.59367
O -23.6504 1.37391 7.27651
O -23.3589 4.27792 7.26956
O -19.3842 2.30966 9.5541
O -19.5363 1.08091 7.16122
O -19.171 3.61276 7.19673
O -21.7672 -3.00391 11.0122
Si -23.3796 -2.90689 11.2842
Si -20.2306 -2.48643 11.151
O -21.9039 0.335748 13.0648
Si -23.4835 -0.0060405 12.8105
Si -20.3296 0.00812699 12.8886
O -23.9052 -0.0704939 14.4249
O -23.8035 -1.45953 12.0281
O -23.8411 1.4184 11.9852
O -19.7115 -0.319713 14.3374
O -20.118 -0.983771 11.6452
O -19.6195 1.18146 12.0578
O -21.2032 -5.79501 6.41632
Si -22.8386 -5.84293 6.63951
Si -19.6289 -5.33904 6.51692
O -21.6418 -2.6097 8.10901
Si -23.2568 -2.94924 8.09913
Si -20.0036 -2.75744 8.14917
O -23.8134 -2.95826 9.67179
O -23.4382 -4.47417 7.41119
O -23.8109 -1.56184 7.30288
O -19.5663 -2.66816 9.69768
O -19.3835 -4.07481 7.47705
O -19.5016 -1.49909 7.27537
O -20.6091 -8.05359 11.1356
Si -22.1812 -8.43504 11.4163
Si -19.2345 -7.18369 11.3025
O -21.5113 -4.98735 13.2616
Si -22.9828 -5.64621 12.9295
Si -19.9108 -4.78288 13.0279
O -23.4164 -5.86412 14.5283
O -22.9546 -7.12639 12.1333
O -23.6756 -4.33961 12.12
O -19.2007 -5.04062 14.4465
O -19.4555 -5.68298 11.7812
O -19.6307 -3.36144 12.3497
O -19.3968 -10.8488 6.44878
Si -20.9666 -11.2432 6.75723
Si -18.0019 -10.02 6.64861
O -20.6078 -7.85543 8.47078
Si -22.0831 -8.54415 8.24705
Si -18.9852 -7.66365 8.33502
O -22.6248 -8.65871 9.82187
O -21.864 -10.0624 7.55356
O -22.9267 -7.34176 7.41518
O -18.5586 -7.25734 9.83928
O -18.1734 -8.94405 7.83078
O -18.7957 -6.51502 7.22711
O -18.2728 -12.6633 11.2229
Si -19.6483 -13.4971 11.5433
Si -17.1228 -11.526 11.4607
O -19.8662 -9.98704 13.3928
Si -21.1225 -11.001 13.057
Si -18.3739 -9.35324 13.1857
O -21.516 -11.3601 14.6397
O -20.7315 -12.4249 12.2526
O -22.1105 -9.89022 12.261
O -17.6674 -9.43857 14.6342
O -17.6625 -10.1091 11.9575
O -18.4652 -7.89942 12.5161
O -16.397 -15.1025 6.48939
Si -17.7682 -15.9336 6.84429
Si -15.2198 -14.0119 6.77602
O -18.2635 -12.6457 8.67518
Si -19.5356 -13.6457 8.37977
Si -16.7504 -12.0348 8.50723
O -20.0286 -13.8724 9.96003
O -18.9379 -15.0513 7.67225
O -20.6574 -12.7069 7.54118
O -16.4469 -11.4632 9.99102
O -15.6501 -13.0791 8.01068
O -16.885 -10.9611 7.31715
O -15.1596 -16.3649 11.2188
Si -15.9587 -17.7607 11.5569
Si -14.029 -15.2212 11.4839
O -16.8267 -14.5696 13.4952
Si -17.9441 -15.7365 13.1418
Si -15.6627 -13.4241 13.2978
O -18.2646 -16.1774 14.7222
O -17.2817 -17.0529 12.3283
O -19.1773 -14.8719 12.3909
O -15.0311 -13.3069 14.785
O -14.6724 -13.8967 12.1193
O -16.2222 -12.0559 12.6804
O -12.7306 -18.2448 6.50052
Si -13.5284 -19.6512 6.77984
Si -11.5462 -17.1325 6.69354
O -14.504 -16.9098 8.73702
Si -15.7455 -17.9511 8.4013
Si -13.4202 -15.6869 8.55789
O -16.1964 -18.2581 9.98065
O -14.9068 -19.1942 7.63253
O -17.0539 -17.26 7.60019
O -13.3163 -15.0469 10.0413
O -12.0491 -16.2077 7.90805
O -13.9061 -14.7001 7.38188
O -10.8862 -19.4124 11.1232
Si -11.278 -20.9835 11.4304
Si -10.048 -18.0218 11.3157
O -12.6418 -18.292 13.3507
Si -13.6654 -19.5466 13.0694
Si -12.0455 -16.7735 13.1911
O -13.8953 -20.0326 14.6506
O -12.7379 -20.6729 12.2227
O -15.0703 -18.9331 12.3744
O -11.4715 -16.4709 14.6734
O -10.9797 -16.9021 11.9932
O -13.1038 -15.6789 12.7148
O -8.09959 -20.6312 6.34625
Si -8.47312 -22.2059 6.6218
Si -7.21842 -19.2632 6.50546
O -9.99987 -19.9027 8.61174
Si -11.03 -21.1453 8.27641
Si -9.37487 -18.4078 8.40335
O -11.395 -21.5344 9.85888
O -9.92615 -22.1358 7.47186
O -12.4514 -20.7383 7.4757
O -9.4655 -17.693 9.84665
O -7.92514 -18.4919 7.72334
O -10.14 -17.7115 7.17294
O -5.83539 -21.2275 11.0801
Si -5.87814 -22.8654 11.2891
Si -5.36962 -19.6548 11.1639
O -7.87436 -20.6348 13.1191
Si -8.57374 -22.1068 12.9063
Si -7.68618 -19.0111 12.9916
O -8.69246 -22.6477 14.4809
O -7.37535 -22.9537 12.0701
O -10.0943 -21.8829 12.2199
O -7.28648 -18.5863 14.4977
O -6.53587 -18.8174 11.8859
O -8.96793 -18.1984 12.493
O -3.05098 -21.8006 6.199
Si -2.94549 -23.4131 6.46743
Si -2.53003 -20.2648 6.33201
O -5.01138 -21.5477 8.45474
Si -5.67936 -23.0151 8.12403
Si -4.81485 -19.9468 8.22156
O -5.89995 -23.444 9.72376
O -4.37643 -23.7095 7.30806
O -7.1621 -22.9809 7.33276
O -5.0801 -19.2325 9.63605
O -3.39837 -19.6624 7.53441
O -5.71785 -19.4998 6.97461
O -0.434451 -21.7664 11.2376
Si -0.148504 -23.3927 11.1714
Si -0.279432 -20.1376 11.0765
O -2.63797 -21.6729 12.7342
Si -2.9791 -23.2877 12.7357
Si -2.78106 -20.0344 12.7833
O -2.99158 -23.8439 14.3085
O -1.59327 -23.8438 11.9362
O -4.50682 -23.4675 12.0539
O -2.70724 -19.6001 14.3332
O -1.51602 -19.534 11.9176
O -4.09042 -19.4067 12.1028