2640
 Atoms. Timestep: 26172
O 18.2348 2.54591 0.408495
Si 19.8376 2.69795 0.752265
Si 16.6956 2.00056 0.573406
O 18.4444 -0.405995 2.69222
Si 20.0232 -0.178087 2.30909
Si 16.8456 -0.421955 2.37988
O 20.5544 -0.0129145 3.88565
O 10.0385 17.9645 2.03394
O 9.56614 -18.0702 1.70867
O 16.2406 0.0327131 3.80931
O 8.44054 14.1573 2.29444
O 7.33316 -15.0287 1.41896
O 17.5689 5.64347 -4.28014
Si 19.176 5.81106 -3.92456
Si 16.0062 5.17484 -4.09863
O 18.2094 3.03649 -2.02563
Si 19.8066 2.99148 -2.4007
Si 16.6272 2.80028 -2.33125
O 20.356 2.89497 -0.824983
O 7.03233 19.3503 -2.67754
O 12.3248 -16.2704 -2.78876
O 16.0905 2.25813 -0.905325
O 5.17704 15.6611 -2.93851
O 10.455 -12.9987 -2.42865
O 16.76 7.67339 0.537858
Si 18.2797 8.21752 0.845593
Si 15.4612 6.68813 0.706299
O 17.8714 4.67698 2.67062
Si 19.2786 5.46769 2.33942
Si 16.2941 4.33444 2.42686
O 19.7328 5.79751 3.91058
O 4.58877 20.0738 2.20403
O 14.2755 -14.6498 1.82794
O 15.5861 4.62498 3.84984
O 4.14042 15.9684 2.46488
O 11.1155 -12.1165 1.61572
O 15.2785 10.5163 -4.14321
Si 16.804 11.0311 -3.78818
Si 13.972 9.55989 -3.93413
O 16.7583 7.67279 -2.02014
Si 18.18 8.43859 -2.31239
Si 15.164 7.35884 -2.21709
O 18.715 8.54202 -0.733918
O 1.31239 20.5464 -2.50557
O 16.4549 -12.1681 -2.81139
O 14.7759 6.78434 -0.755516
O 0.583923 16.4802 -2.76419
O 13.4608 -9.36383 -2.51209
O 13.9581 12.1084 0.705774
Si 15.2579 13.0671 1.00645
Si 12.9901 10.7981 0.885557
O 15.8879 9.54814 2.82215
Si 17.0071 10.7092 2.47893
Si 14.4635 8.77891 2.60853
O 17.3555 11.1537 4.04997
O -1.23757 20.5422 2.37649
O 17.8579 -10.0317 1.72542
O 13.7266 8.85926 4.04214
O -0.495459 16.4778 2.64342
O 14.0378 -8.44352 1.48596
O 11.7283 14.4187 -3.97371
Si 13.0445 15.3472 -3.62282
Si 10.7458 13.132 -3.76196
O 13.952 12.1136 -1.85607
Si 15.1006 13.2504 -2.15189
Si 12.5075 11.3607 -2.03723
O 15.5819 13.5027 -0.572836
O -4.51086 20.0599 -2.33293
O 19.2272 -7.02334 -2.9726
O 12.3024 10.6985 -0.575435
O -4.0466 15.9509 -2.5725
O 15.5247 -5.18063 -2.71885
O 10.0116 15.5726 0.873083
Si 10.9855 16.8614 1.17307
Si 9.45486 14.0417 1.05398
O 12.5852 13.6682 2.99357
Si 13.3321 15.0957 2.64408
Si 11.4385 12.5256 2.78046
O 13.5391 15.6213 4.21541
O -6.95205 19.3019 2.542
O 19.9295 -4.56802 1.55871
O 10.7086 12.3923 4.21357
O -5.08133 15.6433 2.83858
O 15.8263 -4.1385 1.27657
O 7.21587 17.1566 -3.80611
Si 8.21501 18.4201 -3.45521
Si 6.63945 15.6439 -3.59399
O 10.0026 15.5779 -1.6871
Si 10.7824 16.9929 -1.9853
Si 8.83071 14.4465 -1.86785
O 11.1724 17.3712 -0.406192
O -9.93971 17.8918 -2.21988
O 20.4067 -1.3018 -3.10485
O 8.82275 13.752 -0.406744
O -8.36607 14.143 -2.4312
O 16.332 -0.577554 -2.90933
O 5.24106 17.7736 1.04411
Si 5.8102 19.2856 1.34251
Si 5.14465 16.1474 1.22367
O 8.25343 16.6794 3.16234
Si 8.5633 18.2602 2.81178
Si 7.47798 15.2586 2.94942
O 8.61177 18.8234 4.38305
O -12.0309 16.4539 2.58369
O 20.3254 1.24534 1.45759
O 6.81502 14.9236 4.38202
O -9.39327 13.7354 2.94019
O 16.5623 0.50136 1.09819
O 2.10917 18.4965 -3.63392
Si 2.71038 19.9914 -3.28447
Si 1.989 16.882 -3.4226
O 5.23474 17.7753 -1.51797
Si 5.57878 19.3538 -1.81602
Si 4.43135 16.3582 -1.69793
O 5.84464 19.8274 -0.236813
O -14.5228 14.3012 -2.31413
O 19.9012 4.51601 -3.12376
O 4.62143 15.6898 -0.237083
O -12.1939 11.2921 -2.60049
O 15.9166 4.11881 -2.88853
O 0.0385525 18.5224 1.22186
Si 0.157935 20.1344 1.51519
Si 0.413358 16.9369 1.40038
O 3.24594 18.3335 3.33396
Si 3.09068 19.9367 2.98268
Si 2.90578 16.751 3.122
O 2.97619 20.4906 4.55379
O -16.1701 12.3832 2.45398
O 19.143 6.93207 1.51419
O 2.36415 16.2413 4.55407
O -12.8879 10.525 2.77327
O 15.801 5.20173 1.16687
O -3.1704 18.321 -3.45312
Si -3.01287 19.9263 -3.11165
Si -2.82094 16.7404 -3.24017
O 0.0433862 18.5236 -1.34581
Si -0.0811798 20.1343 -1.64341
Si -0.326706 16.9369 -1.52182
O 0.0374048 20.6636 -0.0640229
O -17.9547 9.61221 -2.47667
O 17.8037 9.94294 -2.97528
O 0.0445579 16.3498 -0.0610345
O -14.9003 7.39261 -2.78023
O 14.2816 8.60199 -2.68007
O -5.14998 17.7561 1.39115
Si -5.49875 19.3321 1.68363
Si -4.34699 16.3451 1.59432
O -2.02417 18.4926 3.51214
Si -2.63376 19.9827 3.15569
Si -1.89908 16.878 3.30607
O -2.90157 20.4805 4.72685
O -19.0039 7.31522 2.28784
O 16.4548 12.0798 1.66706
O -2.27457 16.2345 4.73754
O -15.3273 6.45139 2.59562
O 13.7314 9.46751 1.35277
O -8.11535 16.6534 -3.32595
Si -8.45999 18.2208 -2.97131
Si -7.36955 15.2326 -3.0489
O -5.14477 17.7604 -1.1659
Si -5.72955 19.265 -1.47457
Si -5.04709 16.1322 -1.3277
O -5.76986 19.8057 0.105354
O -19.9371 4.15349 -2.64722
O 14.3122 14.5873 -2.81118
O -4.52818 15.675 0.133606
O -16.3802 2.88149 -2.95316
O 11.3087 12.2997 -2.50606
O -9.56566 15.8356 1.37849
Si -10.6705 16.9936 1.74664
Si -8.73187 14.4682 1.6745
O -7.23636 17.0238 3.65082
Si -8.14059 18.3623 3.29067
Si -6.54882 15.5424 3.47339
O -8.51542 18.7783 4.86505
O -20.3013 1.65568 2.11621
O 12.4136 16.2539 1.83276
O -6.68223 14.8767 4.94099
O -16.529 1.85706 2.42274
O 10.5423 12.9759 1.52306
O -12.0965 13.9167 -3.32264
Si -13.1936 15.0891 -2.98974
Si -11.2902 12.5165 -3.07369
O -10.2198 15.3753 -1.02318
Si -10.946 16.8121 -1.40236
Si -9.40931 13.9587 -1.22011
O -11.1092 17.3457 0.173688
O -20.3109 -1.64111 -2.81997
O 9.64664 18.0511 -2.64422
O -8.78635 13.7018 0.250983
O -16.5401 -1.86457 -3.12555
O 7.41518 15.0073 -2.33699
O -13.5836 12.5685 1.30112
Si -15.0184 13.3061 1.6392
Si -12.4378 11.4261 1.51953
O -12.0303 13.9661 3.58414
Si -13.0022 15.2539 3.2632
Si -10.7203 12.9935 3.41609
O -13.4436 15.5785 4.84172
O -19.9621 -4.14082 1.94328
O 7.35271 19.109 2.00087
O -10.6114 12.3154 4.88062
O -16.3988 -2.88943 2.25038
O 6.49154 15.4367 1.69163
O -15.4818 9.97894 -3.43002
Si -16.9015 10.7514 -3.13667
Si -14.346 8.81189 -3.24646
O -14.3239 11.7163 -1.14723
Si -15.266 13.0226 -1.50358
Si -13.0365 10.7312 -1.35071
O -15.5447 13.5112 0.0685216
O -19.0475 -7.30872 -2.99354
O 4.18831 20.0446 -2.47429
O -12.3009 10.6961 0.0860786
O -15.3665 -6.46611 -3.2993
O 2.91453 16.4949 -2.16542
O -16.5753 8.21816 1.13021
Si -18.1575 8.52613 1.47631
Si -15.153 7.44453 1.34247
O -15.4817 9.97927 3.41366
Si -16.7708 10.953 3.11452
Si -13.9476 9.42979 3.23818
O -17.2813 11.1385 4.6935
O -18.0119 -9.61081 1.7691
O 1.68762 20.4041 2.1722
O -13.6533 8.80406 4.70083
O -14.9482 -7.40819 2.07644
O 1.9085 16.643 1.86497
O -17.6663 5.19999 -3.60103
Si -19.2456 5.54283 -3.30537
Si -16.2476 4.39901 -3.42097
O -17.0507 7.18365 -1.3153
Si -18.3173 8.17924 -1.66578
Si -15.5362 6.61119 -1.52654
O -18.721 8.57383 -0.0944947
O -16.2424 -12.3938 -3.16788
O -1.61125 20.3984 -2.30156
O -14.8165 6.78653 -0.0924523
O -12.9517 -10.5529 -3.47885
O -1.82168 16.6396 -1.98401
O -18.2228 3.20237 0.957586
Si -19.8276 3.05549 1.30547
Si -16.6405 2.85929 1.16967
O -17.6654 5.2023 3.2422
Si -19.1773 5.77296 2.94589
Si -16.039 5.10459 3.06338
O -19.7191 5.80756 4.52486
O -14.5985 -14.3111 1.59576
O -4.11241 20.0288 2.3452
O -15.5811 4.58616 4.52603
O -12.295 -11.3385 1.89448
O -2.82854 16.491 2.05248
O -18.424 0.000739086 -3.77283
Si -20.0361 -0.113396 -3.47726
Si -16.8376 -0.370592 -3.5935
O -18.3874 2.0771 -1.48783
Si -19.8831 2.6766 -1.83651
Si -16.7731 1.95309 -1.69986
O -20.3815 2.94286 -0.265484
O -12.11 -16.4738 -3.33103
O -7.26667 19.0781 -2.14392
O -16.1323 2.32244 -0.265182
O -9.4849 -13.7874 -3.67727
O -6.39773 15.424 -1.78541
O -18.4004 -2.07283 0.784683
Si -19.8995 -2.66413 1.13285
Si -16.7854 -1.95881 0.996782
O -18.4242 0.00305874 3.06982
Si -20.0355 0.126574 2.77395
Si -16.8356 0.364957 2.89068
O -20.565 0.00829701 4.35307
O -10.0216 -17.9049 1.43494
O -9.59132 18.0668 2.48252
O -16.2505 -0.00461139 4.35323
O -8.49811 -14.2137 1.67565
O -7.27621 14.7678 2.26486
O -17.6968 -5.20242 -3.94543
Si -19.2119 -5.76491 -3.65034
Si -16.0699 -5.11479 -3.7667
O -18.2421 -3.20024 -1.66099
Si -19.8459 -3.04382 -2.00917
Si -16.6578 -2.86624 -1.87262
O -20.3993 -2.92751 -0.438249
O -7.01002 -19.2571 -3.39961
O -12.3737 16.2903 -2.13581
O -16.1466 -2.33243 -0.437663
O -5.217 -15.8911 -3.76502
O -10.3214 12.7909 -1.82336
O -17.0956 -7.18582 0.609703
Si -18.367 -8.1756 0.95904
Si -15.5777 -6.62294 0.821872
O -17.6976 -5.20131 2.89679
Si -19.2789 -5.5346 2.60079
Si -16.2746 -4.40775 2.71779
O -19.7539 -5.79634 4.18001
O -4.59447 -20.0708 1.4429
O -14.3258 14.6443 2.41038
O -15.609 -4.59908 4.17999
O -4.12766 -15.9615 1.63542
O -11.1135 12.043 2.18061
O -15.5421 -9.99029 -4.11944
Si -16.8359 -10.9588 -3.82445
Si -14.0046 -9.45104 -3.94313
O -16.6248 -8.22633 -1.83506
Si -18.2083 -8.52534 -2.18293
Si -15.1982 -7.46032 -2.0462
O -18.7725 -8.56879 -0.612156
O -1.32381 -20.5439 -3.30717
O -16.4904 12.1464 -2.27758
O -14.8582 -6.80379 -0.611515
O -0.564414 -16.494 -3.59717
O -13.4677 9.33321 -2.00598
O -14.413 -11.7244 0.430095
Si -15.3473 -13.0358 0.784938
Si -13.1149 -10.7569 0.639379
O -15.5405 -9.99353 2.72087
Si -16.9651 -10.7572 2.42658
Si -14.4001 -8.82994 2.54195
O -17.3472 -11.1415 4.00592
O 1.23 -20.567 1.57024
O -17.8699 10.0027 2.25319
O -13.7071 -8.82652 4.00377
O 0.5059 -16.497 1.81673
O -14.056 8.41109 2.00018
O -12.1298 -13.9723 -4.29792
Si -13.089 -15.2714 -3.99498
Si -10.8048 -13.0221 -4.13353
O -13.6565 -12.5971 -2.01431
Si -15.0953 -13.3257 -2.35684
Si -12.5064 -11.4574 -2.22558
O -15.6245 -13.5275 -0.786443
O 4.50659 -20.0981 -3.13858
O -19.2453 6.99572 -2.4437
O -12.3691 -10.7297 -0.791622
O 4.06181 -15.9901 -3.40071
O -15.5498 5.14869 -2.18281
O -10.4381 -15.3403 0.281924
Si -11.0532 -16.8346 0.63744
Si -9.52818 -13.9864 0.46151
O -12.119 -13.9809 2.54497
Si -13.2705 -15.1139 2.25612
Si -11.3596 -12.5437 2.3526
O -13.5265 -15.5931 3.83504
O 6.95258 -19.3722 1.74211
O -19.9653 4.55295 2.08348
O -10.696 -12.3401 3.81351
O 5.09371 -15.6824 2.00969
O -15.8587 4.09537 1.82606
O -7.66957 -16.8764 42.6081
Si -8.26488 -18.3732 -4.10064
Si -6.68938 -15.5698 -4.28171
O -9.57876 -15.9225 -2.17754
Si -10.7493 -17.0345 -2.50749
Si -8.79611 -14.5103 -2.41795
O -11.1999 -17.3717 -0.936882
O 9.95582 -17.9853 -2.97045
O -20.4427 1.28084 -2.61465
O -8.87195 -13.7475 -0.995975
O 8.35265 -14.1749 -3.20755
O -16.3769 0.545068 -2.35601
O -5.29506 -17.7742 0.264697
Si -5.83537 -19.2915 0.604044
Si -5.16838 -16.1458 0.422671
O -8.10928 -16.7227 2.53422
Si -8.53461 -18.2614 2.15506
Si -7.4357 -15.2728 2.22462
O -8.60234 -18.8138 3.73156
O 12.0814 -16.5662 1.89949
O -20.4507 -1.2652 1.91139
O -6.75922 -14.9161 3.64919
O 9.26506 -13.595 2.20154
O -16.3805 -0.553324 1.65305
O -2.19972 -18.4519 -4.42174
Si -2.72559 -19.9799 -4.06653
Si -1.99076 -16.834 -4.24325
O -4.8638 -17.9478 -2.17025
Si -5.55895 -19.3849 -2.54963
Si -4.41092 -16.4146 -2.48002
O -5.87355 -19.8447 -0.973334
O 14.5496 -14.3714 -2.87617
O -19.9926 -4.5405 -2.78727
O -4.68245 -15.7005 -1.05499
O 12.0058 -11.2292 -3.09216
O -15.8833 -4.10688 -2.52921
O -0.0292486 -18.5423 0.406364
Si -0.163815 -20.1513 0.710464
Si -0.400584 -16.9547 0.571148
O -3.23368 -18.3226 2.52896
Si -3.08615 -19.9302 2.19782
Si -2.88972 -16.7453 2.28806
O -2.97072 -20.4806 3.7687
O 16.156 -12.4099 1.91237
O -19.2877 -6.9871 1.73828
O -2.32643 -16.222 3.70863
O 12.8798 -10.5585 2.269
O -15.5817 -5.16072 1.4789
O 3.1731 -18.358 -4.27308
Si 3.00922 -19.9599 -3.91864
Si 2.83204 -16.7753 -4.06442
O -0.043935 -18.5412 -2.15964
Si 0.0761932 -20.1522 -2.44799
Si 0.335228 -16.9604 -2.35056
O -0.0476484 -20.6815 -0.869092
O 17.9381 -9.64158 -3.00442
O -17.9292 -10.0032 -2.96112
O -0.030145 -16.3696 -0.890032
O 14.8904 -7.42717 -3.30034
O -14.1066 -8.43262 -2.70443
O 5.1611 -17.7947 0.588693
Si 5.49862 -19.3754 0.881216
Si 4.35299 -16.3802 0.766226
O 2.02132 -18.5195 2.69407
Si 2.62861 -20.013 2.34882
Si 1.90591 -16.9047 2.48331
O 2.89383 -20.5131 3.91949
O 18.9838 -7.33935 1.75949
O -16.5652 -12.1543 1.56494
O 2.28591 -16.2647 3.91502
O 15.3233 -6.49516 2.06653
O -13.5258 -9.35553 1.30036
O 8.1791 -16.6964 -4.08863
Si 8.48047 -18.2809 -3.74741
Si 7.39899 -15.2786 -3.87348
O 5.15194 -17.7985 -1.98115
Si 5.72734 -19.3084 -2.27744
Si 5.06172 -16.1715 -2.15611
O 5.76334 -19.8492 -0.697954
O 19.9016 -4.17609 -3.16853
O -14.4099 -14.6649 -3.13422
O 4.5405 -15.713 -0.695231
O 16.3617 -2.91887 -3.51007
O -11.1852 -12.0763 -2.891
O 9.90785 -15.6056 0.7393
Si 10.6972 -17.0108 1.04275
Si 8.75131 -14.4696 0.956537
O 7.13128 -17.1808 2.87627
Si 8.13412 -18.4405 2.51968
Si 6.55349 -15.6674 2.67193
O 8.53044 -18.8432 4.09091
O 20.3206 -1.67931 1.59448
O -12.4778 -16.3323 1.397
O 6.73082 -14.9465 4.10488
O 16.3421 -1.8383 1.83976
O -10.3753 -12.789 1.10672
O 12.4338 -13.7172 -3.98385
Si 13.2232 -15.111 -3.62042
Si 11.3354 -12.5509 -3.69397
O 9.92531 -15.5956 -1.80022
Si 10.9032 -16.8792 -2.11486
Si 9.36547 -14.0634 -1.96439
O 11.0936 -17.3883 -0.535183
O 20.2932 1.61773 -3.24844
O -9.71072 -18.1377 -3.26127
O 8.73871 -13.7717 -0.502701
O 16.4887 1.84203 -3.61106
O -7.34916 -14.7412 -3.07083
O 13.601 -12.5424 0.721266
Si 15.0036 -13.3179 1.08172
Si 12.4335 -11.4442 1.00684
O 11.7429 -14.2758 3.00799
Si 12.9637 -15.3313 2.64073
Si 10.6429 -13.0681 2.82469
O 13.4371 -15.6293 4.21573
O 20.0301 4.1514 1.58815
O -7.36103 -19.125 1.30568
O 10.5775 -12.3969 4.29493
O 16.0978 2.87954 1.78084
O -6.486 -15.4141 0.938892
O 15.4715 -10.0053 -3.96658
Si 16.8862 -10.7801 -3.66882
Si 14.3343 -8.84815 -3.75738
O 14.1748 -11.8287 -1.70229
Si 15.2255 -13.0551 -2.066
Si 12.9513 -10.7461 -1.88277
O 15.5244 -13.5273 -0.491028
O 19.1111 7.322 -3.17
O -4.20706 -20.1005 -3.26874
O 12.2767 -10.6878 -0.413985
O 15.1127 6.34076 -3.45872
O -2.91363 -16.3234 -3.02897
O 16.5571 -8.263 0.603687
Si 18.1429 -8.55492 0.947781
Si 15.1364 -7.48693 0.814729
O 15.4721 -10.0058 2.89033
Si 16.7572 -10.9836 2.58275
Si 13.9353 -9.45821 2.72877
O 17.2665 -11.1716 4.16234
O 18.0857 9.65959 1.70317
O -1.69308 -20.4075 1.37516
O 13.6388 -8.83668 4.19171
O 14.6702 7.33276 1.94777
O -1.8977 -16.6605 1.02658
O 17.6385 -5.24473 -4.12993
Si 19.2212 -5.56922 -3.83211
Si 16.2211 -4.43911 -3.96353
O 17.0389 -7.20546 -1.84377
Si 18.301 -8.20776 -2.19389
Si 15.5216 -6.6381 -2.04952
O 18.7059 -8.60132 -0.622928
O 16.3184 12.4557 -3.01193
O 1.60455 -20.4239 -3.10799
O 14.8011 -6.82095 -0.616801
O 12.7541 10.3683 -3.27656
O 1.83389 -16.6748 -2.80773
O 18.1703 -3.14147 0.446875
Si 19.7853 -3.0654 0.797158
Si 16.5621 -2.8713 0.626651
O 17.6452 -5.22017 2.70556
Si 19.1548 -5.79685 2.41895
Si 16.0208 -5.13707 2.52043
O 19.6966 -5.8293 3.9978
O 14.663 14.3937 1.86689
O 4.10684 -20.0649 1.53862
O 15.5571 -4.62469 3.98287
O 12.0496 11.1965 2.12567
O 2.83513 -16.523 1.22743
O 18.404 0.0186558 -4.27944
Si 20.0135 0.107759 -3.94653
Si 16.8081 0.366905 -4.12183
O 18.3405 -2.10556 -2.01622
Si 19.8398 -2.70464 -2.34731
Si 16.7297 -1.98688 -2.25355
O 20.3347 -2.97192 -0.776688
O 12.1749 16.5756 -2.84623
O 7.26953 -19.1292 -2.93624
O 16.0702 -2.3741 -0.830428
O 9.34847 13.565 -3.10722
O 6.41319 -15.4658 -2.61679
O 18.2348 2.54591 9.81785
Si 19.8376 2.69795 10.1616
Si 16.6956 2.00056 9.98276
O 18.4444 -0.405995 12.1016
Si 20.0232 -0.178087 11.7184
Si 16.8456 -0.421955 11.7892
O 20.5544 -0.0129145 13.295
O 10.0385 17.9645 11.4433
O 9.56614 -18.0702 11.118
O 16.2406 0.0327131 13.2187
O 8.44054 14.1573 11.7038
O 7.33316 -15.0287 10.8283
O 17.5689 5.64347 5.12922
Si 19.176 5.81106 5.4848
Si 16.0062 5.17484 5.31072
O 18.2094 3.03649 7.38373
Si 19.8066 2.99148 7.00866
Si 16.6272 2.80028 7.07811
O 20.356 2.89497 8.58437
O 7.03233 19.3503 6.73182
O 12.3248 -16.2704 6.62059
O 16.0905 2.25813 8.50403
O 5.17704 15.6611 6.47085
O 10.455 -12.9987 6.9807
O 16.76 7.67339 9.94721
Si 18.2797 8.21752 10.2549
Si 15.4612 6.68813 10.1157
O 17.8714 4.67698 12.08
Si 19.2786 5.46769 11.7488
Si 16.2941 4.33444 11.8362
O 19.7328 5.79751 13.3199
O 4.58877 20.0738 11.6134
O 14.2755 -14.6498 11.2373
O 15.5861 4.62498 13.2592
O 4.14042 15.9684 11.8742
O 11.1155 -12.1165 11.0251
O 15.2785 10.5163 5.26614
Si 16.804 11.0311 5.62118
Si 13.972 9.55989 5.47522
O 16.7583 7.67279 7.38921
Si 18.18 8.43859 7.09697
Si 15.164 7.35884 7.19226
O 18.715 8.54202 8.67544
O 1.31239 20.5464 6.90379
O 16.4549 -12.1681 6.59796
O 14.7759 6.78434 8.65384
O 0.583923 16.4802 6.64517
O 13.4608 -9.36383 6.89727
O 13.9581 12.1084 10.1151
Si 15.2579 13.0671 10.4158
Si 12.9901 10.7981 10.2949
O 15.8879 9.54814 12.2315
Si 17.0071 10.7092 11.8883
Si 14.4635 8.77891 12.0179
O 17.3555 11.1537 13.4593
O -1.23757 20.5422 11.7858
O 17.8579 -10.0317 11.1348
O 13.7266 8.85926 13.4515
O -0.495459 16.4778 12.0528
O 14.0378 -8.44352 10.8953
O 11.7283 14.4187 5.43565
Si 13.0445 15.3472 5.78653
Si 10.7458 13.132 5.6474
O 13.952 12.1136 7.55329
Si 15.1006 13.2504 7.25747
Si 12.5075 11.3607 7.37213
O 15.5819 13.5027 8.83652
O -4.51086 20.0599 7.07642
O 19.2272 -7.02334 6.43675
O 12.3024 10.6985 8.83392
O -4.0466 15.9509 6.83685
O 15.5247 -5.18063 6.69051
O 10.0116 15.5726 10.2824
Si 10.9855 16.8614 10.5824
Si 9.45486 14.0417 10.4633
O 12.5852 13.6682 12.4029
Si 13.3321 15.0957 12.0534
Si 11.4385 12.5256 12.1898
O 13.5391 15.6213 13.6248
O -6.95205 19.3019 11.9514
O 19.9295 -4.56802 10.9681
O 10.7086 12.3923 13.6229
O -5.08133 15.6433 12.2479
O 15.8263 -4.1385 10.6859
O 7.21587 17.1566 5.60324
Si 8.21501 18.4201 5.95415
Si 6.63945 15.6439 5.81537
O 10.0026 15.5779 7.72225
Si 10.7824 16.9929 7.42406
Si 8.83071 14.4465 7.5415
O 11.1724 17.3712 9.00316
O -9.93971 17.8918 7.18948
O 20.4067 -1.3018 6.3045
O 8.82275 13.752 9.00261
O -8.36607 14.143 6.97816
O 16.332 -0.577554 6.50002
O 5.24106 17.7736 10.4535
Si 5.8102 19.2856 10.7519
Si 5.14465 16.1474 10.633
O 8.25343 16.6794 12.5717
Si 8.5633 18.2602 12.2211
Si 7.47798 15.2586 12.3588
O 8.61177 18.8234 13.7924
O -12.0309 16.4539 11.993
O 20.3254 1.24534 10.8669
O 6.81502 14.9236 13.7914
O -9.39327 13.7354 12.3495
O 16.5623 0.50136 10.5075
O 2.10917 18.4965 5.77543
Si 2.71038 19.9914 6.12489
Si 1.989 16.882 5.98675
O 5.23474 17.7753 7.89139
Si 5.57878 19.3538 7.59333
Si 4.43135 16.3582 7.71142
O 5.84464 19.8274 9.17254
O -14.5228 14.3012 7.09523
O 19.9012 4.51601 6.2856
O 4.62143 15.6898 9.17227
O -12.1939 11.2921 6.80886
O 15.9166 4.11881 6.52082
O 0.0385525 18.5224 10.6312
Si 0.157935 20.1344 10.9245
Si 0.413358 16.9369 10.8097
O 3.24594 18.3335 12.7433
Si 3.09068 19.9367 12.392
Si 2.90578 16.751 12.5314
O 2.97619 20.4906 13.9631
O -16.1701 12.3832 11.8633
O 19.143 6.93207 10.9235
O 2.36415 16.2413 13.9634
O -12.8879 10.525 12.1826
O 15.801 5.20173 10.5762
O -3.1704 18.321 5.95624
Si -3.01287 19.9263 6.29771
Si -2.82094 16.7404 6.16919
O 0.0433862 18.5236 8.06355
Si -0.0811798 20.1343 7.76594
Si -0.326706 16.9369 7.88753
O 0.0374048 20.6636 9.34533
O -17.9547 9.61221 6.93269
O 17.8037 9.94294 6.43407
O 0.0445579 16.3498 9.34832
O -14.9003 7.39261 6.62912
O 14.2816 8.60199 6.72929
O -5.14998 17.7561 10.8005
Si -5.49875 19.3321 11.093
Si -4.34699 16.3451 11.0037
O -2.02417 18.4926 12.9215
Si -2.63376 19.9827 12.565
Si -1.89908 16.878 12.7154
O -2.90157 20.4805 14.1362
O -19.0039 7.31522 11.6972
O 16.4548 12.0798 11.0764
O -2.27457 16.2345 14.1469
O -15.3273 6.45139 12.005
O 13.7314 9.46751 10.7621
O -8.11535 16.6534 6.0834
Si -8.45999 18.2208 6.43805
Si -7.36955 15.2326 6.36046
O -5.14477 17.7604 8.24346
Si -5.72955 19.265 7.93479
Si -5.04709 16.1322 8.08165
O -5.76986 19.8057 9.51471
O -19.9371 4.15349 6.76213
O 14.3122 14.5873 6.59817
O -4.52818 15.675 9.54296
O -16.3802 2.88149 6.4562
O 11.3087 12.2997 6.9033
O -9.56566 15.8356 10.7878
Si -10.6705 16.9936 11.156
Si -8.73187 14.4682 11.0839
O -7.23636 17.0238 13.0602
Si -8.14059 18.3623 12.7
Si -6.54882 15.5424 12.8827
O -8.51542 18.7783 14.2744
O -20.3013 1.65568 11.5256
O 12.4136 16.2539 11.2421
O -6.68223 14.8767 14.3503
O -16.529 1.85706 11.8321
O 10.5423 12.9759 10.9324
O -12.0965 13.9167 6.08672
Si -13.1936 15.0891 6.41961
Si -11.2902 12.5165 6.33566
O -10.2198 15.3753 8.38618
Si -10.946 16.8121 8.00699
Si -9.40931 13.9587 8.18925
O -11.1092 17.3457 9.58304
O -20.3109 -1.64111 6.58939
O 9.64664 18.0511 6.76514
O -8.78635 13.7018 9.66034
O -16.5401 -1.86457 6.2838
O 7.41518 15.0073 7.07236
O -13.5836 12.5685 10.7105
Si -15.0184 13.3061 11.0486
Si -12.4378 11.4261 10.9289
O -12.0303 13.9661 12.9935
Si -13.0022 15.2539 12.6726
Si -10.7203 12.9935 12.8254
O -13.4436 15.5785 14.2511
O -19.9621 -4.14082 11.3526
O 7.35271 19.109 11.4102
O -10.6114 12.3154 14.29
O -16.3988 -2.88943 11.6597
O 6.49154 15.4367 11.101
O -15.4818 9.97894 5.97934
Si -16.9015 10.7514 6.27269
Si -14.346 8.81189 6.1629
O -14.3239 11.7163 8.26212
Si -15.266 13.0226 7.90578
Si -13.0365 10.7312 8.05865
O -15.5447 13.5112 9.47788
O -19.0475 -7.30872 6.41581
O 4.18831 20.0446 6.93507
O -12.3009 10.6961 9.49543
O -15.3665 -6.46611 6.11006
O 2.91453 16.4949 7.24394
O -16.5753 8.21816 10.5396
Si -18.1575 8.52613 10.8857
Si -15.153 7.44453 10.7518
O -15.4817 9.97927 12.823
Si -16.7708 10.953 12.5239
Si -13.9476 9.42979 12.6475
O -17.2813 11.1385 14.1029
O -18.0119 -9.61081 11.1785
O 1.68762 20.4041 11.5816
O -13.6533 8.80406 14.1102
O -14.9482 -7.40819 11.4858
O 1.9085 16.643 11.2743
O -17.6663 5.19999 5.80832
Si -19.2456 5.54283 6.10398
Si -16.2476 4.39901 5.98839
O -17.0507 7.18365 8.09405
Si -18.3173 8.17924 7.74357
Si -15.5362 6.61119 7.88282
O -18.721 8.57383 9.31486
O -16.2424 -12.3938 6.24147
O -1.61125 20.3984 7.10779
O -14.8165 6.78653 9.3169
O -12.9517 -10.5529 5.93051
O -1.82168 16.6396 7.42534
O -18.2228 3.20237 10.3669
Si -19.8276 3.05549 10.7148
Si -16.6405 2.85929 10.579
O -17.6654 5.2023 12.6516
Si -19.1773 5.77296 12.3552
Si -16.039 5.10459 12.4727
O -19.7191 5.80756 13.9342
O -14.5985 -14.3111 11.0051
O -4.11241 20.0288 11.7546
O -15.5811 4.58616 13.9354
O -12.295 -11.3385 11.3038
O -2.82854 16.491 11.4618
O -18.424 0.000739086 5.63653
Si -20.0361 -0.113396 5.93209
Si -16.8376 -0.370592 5.81585
O -18.3874 2.0771 7.92153
Si -19.8831 2.6766 7.57284
Si -16.7731 1.95309 7.70949
O -20.3815 2.94286 9.14387
O -12.11 -16.4738 6.07833
O -7.26667 19.0781 7.26543
O -16.1323 2.32244 9.14417
O -9.4849 -13.7874 5.73209
O -6.39773 15.424 7.62395
O -18.4004 -2.07283 10.194
Si -19.8995 -2.66413 10.5422
Si -16.7854 -1.95881 10.4061
O -18.4242 0.00305874 12.4792
Si -20.0355 0.126574 12.1833
Si -16.8356 0.364957 12.3
O -20.565 0.00829701 13.7624
O -10.0216 -17.9049 10.8443
O -9.59132 18.0668 11.8919
O -16.2505 -0.00461139 13.7626
O -8.49811 -14.2137 11.085
O -7.27621 14.7678 11.6742
O -17.6968 -5.20242 5.46392
Si -19.2119 -5.76491 5.75902
Si -16.0699 -5.11479 5.64266
O -18.2421 -3.20024 7.74836
Si -19.8459 -3.04382 7.40019
Si -16.6578 -2.86624 7.53674
O -20.3993 -2.92751 8.97111
O -7.01002 -19.2571 6.00975
O -12.3737 16.2903 7.27355
O -16.1466 -2.33243 8.97169
O -5.217 -15.8911 5.64434
O -10.3214 12.7909 7.58599
O -17.0956 -7.18582 10.0191
Si -18.367 -8.1756 10.3684
Si -15.5777 -6.62294 10.2312
O -17.6976 -5.20131 12.3061
Si -19.2789 -5.5346 12.0101
Si -16.2746 -4.40775 12.1271
O -19.7539 -5.79634 13.5894
O -4.59447 -20.0708 10.8523
O -14.3258 14.6443 11.8197
O -15.609 -4.59908 13.5893
O -4.12766 -15.9615 11.0448
O -11.1135 12.043 11.59
O -15.5421 -9.99029 5.28992
Si -16.8359 -10.9588 5.5849
Si -14.0046 -9.45104 5.46622
O -16.6248 -8.22633 7.57429
Si -18.2083 -8.52534 7.22643
Si -15.1982 -7.46032 7.36316
O -18.7725 -8.56879 8.7972
O -1.32381 -20.5439 6.10219
O -16.4904 12.1464 7.13178
O -14.8582 -6.80379 8.79784
O -0.564414 -16.494 5.81218
O -13.4677 9.33321 7.40337
O -14.413 -11.7244 9.83945
Si -15.3473 -13.0358 10.1943
Si -13.1149 -10.7569 10.0487
O -15.5405 -9.99353 12.1302
Si -16.9651 -10.7572 11.8359
Si -14.4001 -8.82994 11.9513
O -17.3472 -11.1415 13.4153
O 1.23 -20.567 10.9796
O -17.8699 10.0027 11.6625
O -13.7071 -8.82652 13.4131
O 0.5059 -16.497 11.2261
O -14.056 8.41109 11.4095
O -12.1298 -13.9723 5.11144
Si -13.089 -15.2714 5.41437
Si -10.8048 -13.0221 5.27582
O -13.6565 -12.5971 7.39505
Si -15.0953 -13.3257 7.05252
Si -12.5064 -11.4574 7.18377
O -15.6245 -13.5275 8.62291
O 4.50659 -20.0981 6.27077
O -19.2453 6.99572 6.96565
O -12.3691 -10.7297 8.61773
O 4.06181 -15.9901 6.00864
O -15.5498 5.14869 7.22654
O -10.4381 -15.3403 9.69128
Si -11.0532 -16.8346 10.0468
Si -9.52818 -13.9864 9.87087
O -12.119 -13.9809 11.9543
Si -13.2705 -15.1139 11.6655
Si -11.3596 -12.5437 11.762
O -13.5265 -15.5931 13.2444
O 6.95258 -19.3722 11.1515
O -19.9653 4.55295 11.4928
O -10.696 -12.3401 13.2229
O 5.09371 -15.6824 11.419
O -15.8587 4.09537 11.2354
O -7.66957 -16.8764 4.97064
Si -8.26488 -18.3732 5.30871
Si -6.68938 -15.5698 5.12764
O -9.57876 -15.9225 7.23181
Si -10.7493 -17.0345 6.90187
Si -8.79611 -14.5103 6.99141
O -11.1999 -17.3717 8.47247
O 9.95582 -17.9853 6.4389
O -20.4427 1.28084 6.79471
O -8.87195 -13.7475 8.41338
O 8.35265 -14.1749 6.2018
O -16.3769 0.545068 7.05334
O -5.29506 -17.7742 9.67405
Si -5.83537 -19.2915 10.0134
Si -5.16838 -16.1458 9.83203
O -8.10928 -16.7227 11.9436
Si -8.53461 -18.2614 11.5644
Si -7.4357 -15.2728 11.634
O -8.60234 -18.8138 13.1409
O 12.0814 -16.5662 11.3088
O -20.4507 -1.2652 11.3207
O -6.75922 -14.9161 13.0585
O 9.26506 -13.595 11.6109
O -16.3805 -0.553324 11.0624
O -2.19972 -18.4519 4.98762
Si -2.72559 -19.9799 5.34283
Si -1.99076 -16.834 5.1661
O -4.8638 -17.9478 7.23911
Si -5.55895 -19.3849 6.85973
Si -4.41092 -16.4146 6.92934
O -5.87355 -19.8447 8.43602
O 14.5496 -14.3714 6.53318
O -19.9926 -4.5405 6.62208
O -4.68245 -15.7005 8.35437
O 12.0058 -11.2292 6.31719
O -15.8833 -4.10688 6.88015
O -0.0292486 -18.5423 9.81572
Si -0.163815 -20.1513 10.1198
Si -0.400584 -16.9547 9.9805
O -3.23368 -18.3226 11.9383
Si -3.08615 -19.9302 11.6072
Si -2.88972 -16.7453 11.6974
O -2.97072 -20.4806 13.1781
O 16.156 -12.4099 11.3217
O -19.2877 -6.9871 11.1476
O -2.32643 -16.222 13.118
O 12.8798 -10.5585 11.6784
O -15.5817 -5.16072 10.8883
O 3.1731 -18.358 5.13627
Si 3.00922 -19.9599 5.49071
Si 2.83204 -16.7753 5.34494
O -0.043935 -18.5412 7.24971
Si 0.0761932 -20.1522 6.96137
Si 0.335228 -16.9604 7.05879
O -0.0476484 -20.6815 8.54026
O 17.9381 -9.64158 6.40494
O -17.9292 -10.0032 6.44824
O -0.030145 -16.3696 8.51932
O 14.8904 -7.42717 6.10902
O -14.1066 -8.43262 6.70492
O 5.1611 -17.7947 9.99805
Si 5.49862 -19.3754 10.2906
Si 4.35299 -16.3802 10.1756
O 2.02132 -18.5195 12.1034
Si 2.62861 -20.013 11.7582
Si 1.90591 -16.9047 11.8927
O 2.89383 -20.5131 13.3288
O 18.9838 -7.33935 11.1688
O -16.5652 -12.1543 10.9743
O 2.28591 -16.2647 13.3244
O 15.3233 -6.49516 11.4759
O -13.5258 -9.35553 10.7097
O 8.1791 -16.6964 5.32072
Si 8.48047 -18.2809 5.66194
Si 7.39899 -15.2786 5.53587
O 5.15194 -17.7985 7.42821
Si 5.72734 -19.3084 7.13191
Si 5.06172 -16.1715 7.25324
O 5.76334 -19.8492 8.7114
O 19.9016 -4.17609 6.24083
O -14.4099 -14.6649 6.27514
O 4.5405 -15.713 8.71412
O 16.3617 -2.91887 5.89928
O -11.1852 -12.0763 6.51836
O 9.90785 -15.6056 10.1487
Si 10.6972 -17.0108 10.4521
Si 8.75131 -14.4696 10.3659
O 7.13128 -17.1808 12.2856
Si 8.13412 -18.4405 11.929
Si 6.55349 -15.6674 12.0813
O 8.53044 -18.8432 13.5003
O 20.3206 -1.67931 11.0038
O -12.4778 -16.3323 10.8064
O 6.73082 -14.9465 13.5142
O 16.3421 -1.8383 11.2491
O -10.3753 -12.789 10.5161
O 12.4338 -13.7172 5.4255
Si 13.2232 -15.111 5.78893
Si 11.3354 -12.5509 5.71538
O 9.92531 -15.5956 7.60913
Si 10.9032 -16.8792 7.29449
Si 9.36547 -14.0634 7.44497
O 11.0936 -17.3883 8.87417
O 20.2932 1.61773 6.16091
O -9.71072 -18.1377 6.14808
O 8.73871 -13.7717 8.90665
O 16.4887 1.84203 5.7983
O -7.34916 -14.7412 6.33852
O 13.601 -12.5424 10.1306
Si 15.0036 -13.3179 10.4911
Si 12.4335 -11.4442 10.4162
O 11.7429 -14.2758 12.4173
Si 12.9637 -15.3313 12.0501
Si 10.6429 -13.0681 12.234
O 13.4371 -15.6293 13.6251
O 20.0301 4.1514 10.9975
O -7.36103 -19.125 10.715
O 10.5775 -12.3969 13.7043
O 16.0978 2.87954 11.1902
O -6.486 -15.4141 10.3482
O 15.4715 -10.0053 5.44278
Si 16.8862 -10.7801 5.74054
Si 14.3343 -8.84815 5.65197
O 14.1748 -11.8287 7.70706
Si 15.2255 -13.0551 7.34335
Si 12.9513 -10.7461 7.52658
O 15.5244 -13.5273 8.91833
O 19.1111 7.322 6.23936
O -4.20706 -20.1005 6.14061
O 12.2767 -10.6878 8.99537
O 15.1127 6.34076 5.95063
O -2.91363 -16.3234 6.38038
O 16.5571 -8.263 10.013
Si 18.1429 -8.55492 10.3571
Si 15.1364 -7.48693 10.2241
O 15.4721 -10.0058 12.2997
Si 16.7572 -10.9836 11.9921
Si 13.9353 -9.45821 12.1381
O 17.2665 -11.1716 13.5717
O 18.0857 9.65959 11.1125
O -1.69308 -20.4075 10.7845
O 13.6388 -8.83668 13.6011
O 14.6702 7.33276 11.3571
O -1.8977 -16.6605 10.4359
O 17.6385 -5.24473 5.27942
Si 19.2212 -5.56922 5.57725
Si 16.2211 -4.43911 5.44582
O 17.0389 -7.20546 7.56558
Si 18.301 -8.20776 7.21546
Si 15.5216 -6.6381 7.35984
O 18.7059 -8.60132 8.78643
O 16.3184 12.4557 6.39742
O 1.60455 -20.4239 6.30137
O 14.8011 -6.82095 8.79255
O 12.7541 10.3683 6.1328
O 1.83389 -16.6748 6.60163
O 18.1703 -3.14147 9.85623
Si 19.7853 -3.0654 10.2065
Si 16.5621 -2.8713 10.036
O 17.6452 -5.22017 12.1149
Si 19.1548 -5.79685 11.8283
Si 16.0208 -5.13707 11.9298
O 19.6966 -5.8293 13.4072
O 14.663 14.3937 11.2762
O 4.10684 -20.0649 10.948
O 15.5571 -4.62469 13.3922
O 12.0496 11.1965 11.535
O 2.83513 -16.523 10.6368
O 18.404 0.0186558 5.12991
Si 20.0135 0.107759 5.46283
Si 16.8081 0.366905 5.28753
O 18.3405 -2.10556 7.39314
Si 19.8398 -2.70464 7.06204
Si 16.7297 -1.98688 7.15581
O 20.3347 -2.97192 8.63267
O 12.1749 16.5756 6.56313
O 7.26953 -19.1292 6.47311
O 16.0702 -2.3741 8.57893
O 9.34847 13.565 6.30214
O 6.41319 -15.4658 6.79257
O 18.2348 2.54591 19.2272
Si 19.8376 2.69795 19.571
Si 16.6956 2.00056 19.3921
O 18.4444 -0.405995 21.5109
Si 20.0232 -0.178087 21.1278
Si 16.8456 -0.421955 21.1986
O 20.5544 -0.0129145 22.7044
O 10.0385 17.9645 20.8526
O 9.56614 -18.0702 20.5274
O 16.2406 0.0327131 22.628
O 8.44054 14.1573 21.1132
O 7.33316 -15.0287 20.2377
O 17.5689 5.64347 14.5386
Si 19.176 5.81106 14.8942
Si 16.0062 5.17484 14.7201
O 18.2094 3.03649 16.7931
Si 19.8066 2.99148 16.418
Si 16.6272 2.80028 16.4875
O 20.356 2.89497 17.9937
O 7.03233 19.3503 16.1412
O 12.3248 -16.2704 16.0299
O 16.0905 2.25813 17.9134
O 5.17704 15.6611 15.8802
O 10.455 -12.9987 16.3901
O 16.76 7.67339 19.3566
Si 18.2797 8.21752 19.6643
Si 15.4612 6.68813 19.525
O 17.8714 4.67698 21.4893
Si 19.2786 5.46769 21.1581
Si 16.2941 4.33444 21.2456
O 19.7328 5.79751 22.7293
O 4.58877 20.0738 21.0227
O 14.2755 -14.6498 20.6466
O 15.5861 4.62498 22.6686
O 4.14042 15.9684 21.2836
O 11.1155 -12.1165 20.4344