3744
 Atoms. Timestep: 14024
O 47.3344 60.7133 2.54422
Si 48.5398 61.8343 2.5443
Si 46.5137 59.2905 2.54423
O 50.1596 58.4114 2.54474
Si 51.0145 59.8182 2.54423
Si 48.9317 57.3205 2.54429
O 51.9375 59.6952 3.90788
O 50.043 61.1525 2.54422
O 51.9373 59.6951 1.1805
O 49.1287 56.454 3.90799
O 47.4478 57.9681 2.54424
O 49.1288 56.4541 1.18053
O 43.5771 63.4518 -0.183175
Si 44.7126 64.6435 -0.183215
Si 42.8436 61.9821 -0.183241
O 46.5359 61.3246 -0.183093
Si 47.3043 62.7803 -0.183122
Si 45.3761 60.1615 -0.183194
O 48.2329 62.7132 1.18057
O 46.2542 64.0537 -0.1832
O 48.2329 62.7132 3.90807
O 45.6252 59.3085 1.18053
O 43.8558 60.7184 -0.183131
O 45.6252 59.3085 3.90793
O 22.7115 73.5081 2.54468
Si 23.4419 74.9833 2.54455
Si 22.4476 71.8869 2.54465
O 26.1683 72.3548 2.54425
Si 26.4697 73.973 2.54437
Si 25.4062 70.8997 2.54438
O 27.3763 74.1846 3.9081
O 25.089 74.8774 2.54446
O 27.3763 74.1847 1.18065
O 25.8972 70.1591 3.90814
O 23.7891 70.9805 2.54421
O 25.8973 70.159 1.1807
O 18.2282 74.7398 -0.182968
Si 18.8684 76.2563 -0.182934
Si 18.0626 73.1056 -0.182971
O 21.7484 73.7974 -0.182825
Si 21.9517 75.4308 -0.182879
Si 21.0754 72.2991 -0.182779
O 22.8439 75.6968 1.18086
O 20.5189 76.2501 -0.182984
O 22.8439 75.6968 3.90829
O 21.61 71.5894 1.18105
O 19.4564 72.2819 -0.183152
O 21.6104 71.5893 3.90844
O -4.84653 76.7615 2.5435
Si -4.68499 78.3996 2.54378
Si -4.52027 75.1517 2.54371
O -1.20526 76.9048 2.54415
Si -1.49558 78.5251 2.54399
Si -1.4036 75.2743 2.54402
O -0.722516 79.0436 3.90777
O -3.10683 78.883 2.54394
O -0.722423 79.0436 1.18027
O -0.682403 74.7551 3.90779
O -2.94483 74.7781 2.54375
O -0.682127 74.7551 1.18039
O -27.4823 71.8471 -0.183636
Si -9.41335 77.9741 -0.183561
Si -9.05324 74.742 -0.183386
O -5.84973 76.6918 -0.183517
Si -6.23719 78.2916 -0.183648
Si -5.94969 75.0523 -0.183715
O -5.49652 78.8557 1.18003
O -7.86713 78.5516 -0.183624
O -5.49663 78.8557 3.90747
O -5.19851 74.5773 1.18
O -7.45817 74.4641 -0.183879
O -5.19842 74.5774 3.90747
O -31.7753 70.0609 2.54369
Si -32.2037 71.6503 2.54366
Si -30.9005 68.6707 2.54359
O -28.4199 71.4827 2.54429
Si -29.2646 72.8956 2.54386
Si -28.0286 69.8875 2.54406
O -28.7248 73.654 3.90761
O -30.8983 72.6604 2.54376
O -28.7246 73.654 1.18019
O -27.1704 69.6568 3.90781
O -29.2948 68.8783 2.5439
O -27.1701 69.657 1.18043
O -51.2039 57.4486 -0.182993
Si -36.4761 69.5796 -0.183567
Si -49.9554 56.3814 -0.18298
O -32.6892 69.6409 -0.183963
Si -33.6176 71.0003 -0.183777
Si -32.2023 68.0722 -0.183843
O -33.1242 71.7898 1.17996
O -35.2342 70.6668 -0.183686
O -33.1243 71.7898 3.90729
O -31.3315 67.8938 1.17972
O -33.4052 66.9885 -0.183352
O -31.3318 67.8936 3.90725
O -54.5842 54.256 2.54417
Si -55.5482 55.5903 2.54434
Si -53.2735 53.266 2.54433
O -51.9513 56.7755 2.54444
Si -53.242 57.7972 2.54436
Si -51.0201 55.4225 2.54445
O -53.006 58.6978 3.90812
O -54.6861 56.9978 2.54427
O -53.0059 58.6979 1.18066
O -50.1358 55.5112 3.90816
O -51.8459 54.0298 2.54445
O -50.1359 55.5112 1.18071
O -68.2853 35.579 -0.182657
Si -58.8085 52.139 -0.18323
Si -66.7395 35.0236 -0.18302
O -55.2896 53.5389 -0.182956
Si -56.6395 54.481 -0.183074
Si -54.2785 52.2445 -0.183085
O -56.4584 55.3942 1.1806
O -58.0328 53.596 -0.18314
O -56.4583 55.3942 3.90807
O -53.401 52.3865 1.18054
O -55.0189 50.8046 -0.182944
O -53.4012 52.3864 3.90801
O -70.3147 31.3959 2.54459
Si -71.689 32.302 2.54491
Si -68.7382 30.9347 2.54519
O -68.7455 34.6848 2.54408
Si -70.3144 35.1828 2.5445
Si -67.3952 33.7497 2.54438
O -70.4129 36.1087 3.90818
O -71.3816 33.9236 2.54463
O -70.4131 36.1087 1.18079
O -66.5999 34.1458 3.90819
O -67.6738 32.1548 2.54435
O -66.5996 34.1461 1.18077
O -76.5025 9.07524 -0.183192
Si -73.5149 27.9194 -0.183124
Si -70.487 26.7329 -0.183373
O -70.7203 30.4756 -0.181462
Si -72.3164 30.878 -0.182467
Si -69.316 29.6237 -0.182181
O -72.4708 31.796 1.18135
O -73.3057 29.5567 -0.182843
O -72.4705 31.7962 3.90869
O -68.5459 30.0667 1.18174
O -69.4981 28.0149 -0.183057
O -68.5457 30.0677 3.9092
O -76.9159 4.44416 2.54443
Si -78.5222 4.80384 2.54446
Si -75.2784 4.57244 2.54463
O -76.6156 8.07607 2.54366
Si -78.2592 7.98505 2.54419
Si -75.0214 7.68075 2.54394
O -78.6796 8.81578 3.90786
O -78.8101 6.42911 2.54432
O -78.6798 8.81555 1.1804
O -74.4182 8.33364 3.90752
O -74.7161 6.09073 2.54445
O -74.4182 8.33303 1.18006
O -77.049 -0.203249 -0.183256
Si -78.6742 0.0585416 -0.18315
Si -75.4223 0.0236731 -0.183117
O -76.9685 3.44007 -0.182591
Si -78.6035 3.24984 -0.182957
Si -75.3533 3.1418 -0.182789
O -79.0735 4.0535 1.1808
O -79.0596 1.6635 -0.183106
O -79.0734 4.05366 3.90823
O -74.7906 3.82954 1.18096
O -74.9526 1.57311 -0.183149
O -74.7906 3.82981 3.90845
O -76.9006 -4.85039 2.54428
Si -78.5386 -4.68745 2.54412
Si -75.2905 -4.52539 2.54407
O -77.0408 -1.20883 2.54443
Si -78.6614 -1.49767 2.54428
Si -75.4105 -1.40881 2.54433
O -79.1791 -0.723758 3.908
O -79.0205 -3.10875 2.54419
O -79.179 -0.723812 1.18054
O -74.8905 -0.688322 3.90808
O -74.9156 -2.95035 2.5443
O -74.8905 -0.688233 1.1806
O -76.4704 -9.48006 -0.183295
Si -78.1152 -9.41652 -0.183296
Si -74.883 -9.05799 -0.183236
O -76.8313 -5.85362 -0.183605
Si -78.4314 -6.24004 -0.183333
Si -75.1919 -5.95446 -0.183383
O -78.995 -5.49893 1.18038
O -78.6921 -7.86995 -0.183286
O -78.9951 -5.49897 3.90782
O -74.7166 -5.20365 1.18031
O -74.6043 -7.46312 -0.183212
O -74.7165 -5.20381 3.90773
O -75.7609 -14.0751 2.54383
Si -77.4065 -14.1113 2.54394
Si -74.202 -13.5577 2.54393
O -76.3405 -10.4773 2.5442
Si -77.9143 -10.9598 2.54413
Si -74.698 -10.4786 2.5442
O -78.5217 -10.2542 3.90787
O -78.0759 -12.6025 2.54404
O -78.5217 -10.2542 1.18043
O -74.269 -9.70025 3.90786
O -74.0203 -11.9489 2.5442
O -74.269 -9.70044 1.18044
O -74.7739 -18.6186 -0.183181
Si -76.4144 -18.7546 -0.183449
Si -73.2493 -18.0078 -0.183325
O -75.5709 -15.0625 -0.183381
Si -77.1125 -15.6396 -0.183487
Si -73.9313 -14.9644 -0.183491
O -77.7616 -14.9721 1.18021
O -77.1741 -17.2892 -0.183484
O -77.7616 -14.9721 3.90765
O -73.5502 -14.1616 1.18016
O -73.1656 -16.3909 -0.183243
O -73.5502 -14.1618 3.9076
O -73.513 -23.0939 2.54347
Si -75.1423 -23.329 2.54363
Si -72.0282 -22.3918 2.54343
O -74.5243 -19.5927 2.54395
Si -76.0281 -20.2622 2.54396
Si -72.8937 -19.3954 2.54409
O -76.7165 -19.6354 3.90773
O -75.9895 -21.9124 2.54381
O -76.7166 -19.6353 1.18029
O -72.562 -18.571 3.90779
O -72.0428 -20.7728 2.54414
O -72.562 -18.5711 1.18036
O -71.984 -27.4847 -0.183068
Si -73.596 -27.818 -0.183462
Si -70.5443 -26.6941 -0.183226
O -73.2049 -24.0511 -0.184146
Si -74.6654 -24.8104 -0.183804
Si -71.5892 -23.7554 -0.184009
O -75.3906 -24.2262 1.17984
O -74.5273 -26.4552 -0.183611
O -75.3905 -24.2264 3.90729
O -71.3082 -22.912 1.17946
O -70.6566 -25.0789 -0.183297
O -71.3079 -22.9129 3.90688
O -70.1929 -31.7753 2.54435
Si -71.7818 -32.2056 2.54382
Si -68.8037 -30.899 2.54363
O -71.6187 -28.4217 2.54396
Si -73.0307 -29.268 2.54396
Si -70.0239 -28.0288 2.54419
O -73.7896 -28.7288 3.90773
O -72.7936 -30.9015 2.54387
O -73.7897 -28.7287 1.18028
O -69.7941 -27.1704 3.90793
O -69.0132 -29.2936 2.54411
O -69.7941 -27.1703 1.18052
O -68.1451 -35.9497 -0.183335
Si -69.705 -36.4754 -0.183301
Si -66.8117 -34.9906 -0.183082
O -69.7717 -32.6885 -0.184628
Si -71.1297 -33.6188 -0.183659
Si -68.2037 -32.1996 -0.183866
O -71.9199 -33.1263 1.18004
O -70.794 -35.2349 -0.183451
O -71.9201 -33.1265 3.90745
O -68.0264 -31.3286 1.17965
O -67.1182 -33.4008 -0.183237
O -68.0259 -31.3293 3.90713
O -65.8469 -39.9913 2.54404
Si -67.3719 -40.6109 2.54371
Si -64.5742 -38.953 2.54351
O -67.6691 -36.8354 2.54473
Si -68.9682 -37.8464 2.54415
Si -66.1336 -36.2522 2.54437
O -69.7869 -37.4031 3.90795
O -68.5345 -39.4391 2.54389
O -69.787 -37.4028 1.1805
O -66.0093 -35.3725 3.90818
O -64.9769 -37.385 2.54408
O -66.0096 -35.3722 1.18078
O -63.3068 -43.8856 -0.183337
Si -64.7914 -44.5967 -0.18346
Si -62.0994 -42.772 -0.18335
O -65.3177 -40.8464 -0.184636
Si -66.5529 -41.9344 -0.183768
Si -63.8204 -40.171 -0.183974
O -67.3972 -41.5415 1.17988
O -66.0231 -43.4978 -0.183583
O -67.3972 -41.5418 3.90735
O -63.7504 -39.285 1.17955
O -62.5969 -41.2313 -0.183439
O -63.7497 -39.2856 3.90692
O -60.5346 -47.6183 2.54375
Si -61.9733 -48.4181 2.54379
Si -59.397 -46.4335 2.54379
O -62.7265 -44.7069 2.54414
Si -63.8934 -45.8679 2.54397
Si -61.2729 -43.9419 2.54408
O -64.76 -45.5272 3.90768
O -63.2695 -47.3961 2.54385
O -64.7601 -45.5271 1.18034
O -61.2565 -43.0537 3.90792
O -59.9872 -44.9259 2.54384
O -61.2567 -43.0534 1.18043
O -57.542 -51.1768 -0.183484
Si -58.9297 -52.0622 -0.183643
Si -56.4782 -49.9253 -0.183669
O -59.9056 -48.4031 -0.183639
Si -61.0001 -49.6326 -0.183638
Si -58.5012 -47.5514 -0.183636
O -61.8857 -49.345 1.18004
O -60.2852 -51.1203 -0.183615
O -61.8857 -49.3451 3.90748
O -58.5386 -46.6636 1.1801
O -57.1584 -48.456 -0.183755
O -58.5387 -46.6636 3.9075
O -39.6777 -65.9198 2.5443
Si -40.7389 -67.1781 2.54413
Si -39.0346 -64.4084 2.54424
O -42.7602 -63.9763 2.54398
Si -43.439 -65.4759 2.54399
Si -41.6731 -62.7449 2.54397
O -44.3699 -65.4656 3.90765
O -42.3134 -66.6831 2.54404
O -44.3699 -65.4656 1.18033
O -41.9735 -61.9089 3.90791
O -40.1217 -63.2085 2.54355
O -41.974 -61.9085 1.1804
O -35.6181 -68.1861 -0.183471
Si -36.6019 -69.5059 -0.183416
Si -35.067 -66.6388 -0.183463
O -38.8113 -66.4302 -0.183301
Si -39.3987 -67.968 -0.183299
Si -37.8001 -65.1359 -0.183197
O -40.3284 -68.0135 1.18039
O -38.2031 -69.1058 -0.183355
O -40.3284 -68.0136 3.90786
O -38.15 -64.3193 1.18073
O -36.2238 -65.5059 -0.183814
O -38.1505 -64.3189 3.90809
O -13.6958 -75.6599 2.54382
Si -14.2436 -77.2122 2.54389
Si -13.6286 -74.0187 2.5439
O -17.2663 -74.9309 2.54411
Si -17.3708 -76.5736 2.54409
Si -16.6846 -73.3948 2.54419
O -18.2453 -76.8929 3.90782
O -15.8914 -77.3053 2.54399
O -18.2453 -76.8929 1.18041
O -17.2607 -72.7187 3.90813
O -15.0695 -73.2803 2.54364
O -17.2614 -72.7185 1.18068
O 9.45717 -76.293 -0.183865
Si -9.5506 -77.9263 -0.183554
Si -9.12896 -74.7017 -0.183497
O -12.705 -75.8312 -0.183439
Si -12.7106 -77.4772 -0.183544
Si -12.2169 -74.2629 -0.183522
O -13.5642 -77.8486 1.18015
O -11.1898 -78.1185 -0.183556
O -13.5642 -77.8486 3.90762
O -12.833 -73.6226 1.18025
O -10.6117 -74.0513 -0.183763
O -12.8333 -73.6225 3.90768
O 14.0518 -75.5834 2.54359
Si 14.0878 -77.2291 2.54354
Si 13.5349 -74.0244 2.54342
O 10.4541 -76.163 2.54396
Si 10.9367 -77.7367 2.54369
Si 10.4556 -74.5205 2.54376
O 10.2316 -78.3444 3.90743
O 12.5792 -77.8985 2.54361
O 10.2315 -78.3444 1.17999
O 9.67727 -74.0916 3.90747
O 11.926 -73.8427 2.54393
O 9.67729 -74.0916 1.18003
O 35.9331 -67.9933 -0.184051
Si 18.7304 -76.2402 -0.183733
Si 17.9858 -73.0744 -0.183549
O 15.0393 -75.3937 -0.184237
Si 15.6155 -76.9357 -0.183908
Si 14.9418 -73.7541 -0.184033
O 14.948 -77.5846 1.17977
O 17.2647 -76.9988 -0.183849
O 14.9481 -77.5846 3.90722
O 14.1388 -73.3728 1.1795
O 16.369 -72.9894 -0.183592
O 14.1395 -73.3726 3.9069
O 39.9781 -65.7014 2.54368
Si 40.595 -67.2275 2.54353
Si 38.9422 -64.4267 2.54351
O 36.8193 -67.5184 2.54323
Si 37.8282 -68.8191 2.54335
Si 36.2387 -65.9819 2.54335
O 37.3839 -69.6372 3.90705
O 39.4215 -68.3881 2.54347
O 37.384 -69.6372 1.17962
O 35.3589 -65.8566 3.90702
O 37.3734 -64.827 2.54346
O 35.3592 -65.8564 1.17949
O 57.7445 -50.8413 -0.183483
Si 44.5857 -64.6562 -0.183631
Si 56.3762 -49.9325 -0.183548
O 40.8342 -65.174 -0.184107
Si 41.9197 -66.4115 -0.183894
Si 40.1619 -63.6754 -0.183932
O 41.5255 -67.2548 1.1798
O 43.4842 -65.8854 -0.18375
O 41.5256 -67.2549 3.90724
O 39.2763 -63.6033 1.17982
O 41.225 -62.4543 -0.18394
O 39.2761 -63.6033 3.90727
O 60.7146 -47.2645 2.54362
Si 61.8324 -48.4729 2.54401
Si 59.2941 -46.4399 2.54407
O 58.4049 -50.0832 2.54389
Si 59.8094 -50.9418 2.54394
Si 57.3173 -48.8524 2.54389
O 59.6839 -51.8642 3.90766
O 61.1465 -49.9741 2.54398
O 59.6839 -51.8642 1.18022
O 56.4502 -49.0469 3.90762
O 57.969 -47.3703 2.54385
O 56.4501 -49.0471 1.18026
O 72.0575 -27.0709 -0.183187
Si 64.6526 -44.6539 -0.183499
Si 70.4559 -26.7063 -0.183237
O 61.3282 -46.468 -0.182788
Si 62.7819 -47.2402 -0.183375
Si 60.1683 -45.305 -0.183308
O 62.7123 -48.1686 1.18035
O 64.0583 -46.1937 -0.183463
O 62.7121 -48.1685 3.90776
O 59.3145 -45.5514 1.18045
O 60.7295 -43.7864 -0.183496
O 59.3145 -45.5516 3.90786
O 73.566 -22.6731 2.54378
Si 75.0397 -23.4066 2.54394
Si 71.9453 -22.406 2.54392
O 72.4062 -26.1278 2.54418
Si 74.0238 -26.4325 2.54404
Si 70.9527 -25.3627 2.5442
O 74.2336 -27.3395 3.90776
O 74.9307 -25.0535 2.54397
O 74.2336 -27.3396 1.18036
O 70.2111 -25.8519 3.90803
O 71.0363 -23.7458 2.54405
O 70.211 -25.8523 1.18059
O 77.0111 0.229992 -0.183449
Si 76.3216 -18.8357 -0.183799
Si 75.3843 0.00291929 -0.183536
O 73.857 -21.7108 -0.183317
Si 75.4901 -21.9173 -0.18348
Si 72.36 -21.0349 -0.183493
O 75.7544 -22.81 1.18026
O 76.3122 -20.4862 -0.18357
O 75.7543 -22.81 3.9077
O 71.6492 -21.5683 1.18014
O 72.346 -19.4159 -0.183395
O 71.6493 -21.5681 3.90757
O 76.8624 4.87674 2.54422
Si 78.5004 4.71377 2.54425
Si 75.2524 4.55177 2.54442
O 77.0028 1.23538 2.54378
Si 78.6234 1.52421 2.54398
Si 75.3725 1.43529 2.54389
O 79.1411 0.750503 3.90769
O 78.9825 3.1352 2.54416
O 79.1411 0.750581 1.18022
O 74.8525 0.71454 3.90749
O 74.8775 2.97677 2.54426
O 74.8525 0.7149 1.18011
O 76.4324 9.50597 -0.183383
Si 78.0773 9.44243 -0.18337
Si 74.8449 9.08425 -0.183417
O 76.7932 5.87986 -0.182748
Si 78.3934 6.2661 -0.183163
Si 75.1538 5.9808 -0.182991
O 78.9571 5.52522 1.18061
O 78.6542 7.89595 -0.183256
O 78.957 5.52502 3.90802
O 74.6784 5.23032 1.18083
O 74.5662 7.4894 -0.18321
O 74.6785 5.22994 3.90823
O 75.7237 14.1009 2.54428
Si 77.3694 14.1368 2.54419
Si 74.1647 13.5839 2.54411
O 76.3026 10.503 2.54387
Si 77.8765 10.9854 2.54405
Si 74.6601 10.5047 2.54401
O 78.4839 10.2799 3.90777
O 78.0385 12.628 2.54414
O 78.4839 10.2799 1.18031
O 74.231 9.72634 3.90756
O 73.9826 11.9752 2.54431
O 74.2309 9.72689 1.18017
O 74.7388 18.6446 -0.1831
Si 76.3793 18.7801 -0.183077
Si 73.2139 18.0343 -0.18302
O 75.5341 15.0883 -0.18342
Si 77.0759 15.665 -0.18325
Si 73.8945 14.9907 -0.183332
O 77.7248 14.9973 1.18044
O 77.1383 17.3144 -0.183221
O 77.7248 14.9974 3.90791
O 73.5131 14.188 1.18034
O 73.1293 16.4175 -0.183063
O 73.513 14.1882 3.90778
O 73.4807 23.1205 2.54425
Si 75.11 23.355 2.54429
Si 71.9956 22.4189 2.54424
O 74.4898 19.6188 2.54452
Si 75.9938 20.2877 2.54436
Si 72.8591 19.4221 2.54442
O 76.6819 19.6606 3.90812
O 75.9564 21.9379 2.54424
O 76.6819 19.6606 1.18062
O 72.5269 18.598 3.90815
O 72.0091 20.8 2.54429
O 72.527 18.5979 1.18071
O 71.9537 27.5119 -0.183163
Si 73.5658 27.8446 -0.183162
Si 70.5138 26.7215 -0.183186
O 73.1732 24.0777 -0.183178
Si 74.634 24.8366 -0.18314
Si 71.5575 23.7825 -0.183194
O 75.3588 24.2521 1.18056
O 74.4965 26.4815 -0.18317
O 75.3588 24.2522 3.90801
O 71.2758 22.9398 1.18049
O 70.6254 25.1063 -0.183154
O 71.2758 22.9398 3.90796
O 70.1623 31.8021 2.54458
Si 71.7513 32.2321 2.54442
Si 68.7731 30.9259 2.54449
O 71.5885 28.4486 2.54421
Si 73.0005 29.2946 2.54427
Si 69.9936 28.0559 2.54424
O 73.7596 28.7554 3.908
O 72.7632 30.9281 2.54437
O 73.7596 28.7554 1.18054
O 69.7637 27.1976 3.90797
O 68.9828 29.3206 2.54422
O 69.7637 27.1976 1.18052
O 68.1141 35.9759 -0.182734
Si 69.674 36.5015 -0.182913
Si 66.7805 35.0171 -0.182825
O 69.7409 32.7149 -0.18301
Si 71.099 33.6451 -0.183009
Si 68.1727 32.2263 -0.182943
O 71.8894 33.1529 1.18072
O 70.7631 35.2611 -0.182943
O 71.8894 33.1528 3.90818
O 67.9953 31.3558 1.18086
O 67.0871 33.4274 -0.183176
O 67.9954 31.3556 3.90827
O 65.8169 40.018 2.54434
Si 67.3421 40.6372 2.54444
Si 64.5438 38.9802 2.54445
O 67.6382 36.8617 2.54456
Si 68.9375 37.8723 2.54451
Si 66.1025 36.2788 2.5446
O 69.7562 37.4289 3.90827
O 68.5044 39.4651 2.54449
O 69.7562 37.4288 1.18084
O 65.9781 35.3992 3.90843
O 64.9462 37.412 2.54434
O 65.9783 35.3988 1.18099
O 63.2791 43.9136 -0.183206
Si 64.764 44.624 -0.183021
Si 62.0712 42.8006 -0.18308
O 65.2883 40.8734 -0.182851
Si 66.5239 41.9609 -0.182981
Si 63.7908 40.1986 -0.18297
O 67.368 41.5679 1.18074
O 65.9951 43.5245 -0.182977
O 67.3679 41.5679 3.90814
O 63.7199 39.3129 1.18077
O 62.5678 41.2596 -0.18301
O 63.72 39.3128 3.90822
O 60.5101 47.6485 2.54479
Si 61.9493 48.4475 2.54465
Si 59.3719 46.4643 2.54465
O 62.6996 44.7354 2.54449
Si 63.8672 45.8958 2.54442
Si 61.2457 43.9712 2.54436
O 64.7335 45.5545 3.9081
O 63.2447 47.4245 2.54443
O 64.7334 45.5546 1.18069
O 61.2287 43.0827 3.90801
O 59.9608 44.9562 2.54444
O 61.2287 43.0828 1.18065
O 57.5201 51.209 -0.183816
Si 58.9082 52.0937 -0.183231
Si 56.4557 49.958 -0.183246
O 59.882 48.4337 -0.182785
Si 60.9771 49.6627 -0.182783
Si 58.477 47.5828 -0.182783
O 61.8623 49.3746 1.181
O 60.2631 51.151 -0.183037
O 61.8624 49.3745 3.90839
O 58.5137 46.6951 1.18098
O 57.1349 48.4883 -0.183006
O 58.5138 46.6949 3.90841
O 54.3195 54.5814 2.54458
Si 55.6514 55.5487 2.54435
Si 53.3329 53.2682 2.54432
O 56.8454 51.9546 2.54477
Si 57.864 53.2477 2.54424
Si 55.4946 51.0201 2.54423
O 58.7653 53.0137 3.90789
O 57.0611 54.6899 2.54427
O 58.7651 53.0137 1.18046
O 55.5852 50.136 3.90787
O 54.1 51.8425 2.54435
O 55.5852 50.1363 1.18047
O 50.9198 57.7531 -0.18373
Si 52.1907 58.7993 -0.183238
Si 50.0146 56.3826 -0.183179
O 53.6007 55.2846 -0.183309
Si 54.5391 56.637 -0.183099
Si 52.309 54.27 -0.18313
O 55.4528 56.4583 1.18062
O 53.6499 58.0277 -0.183163
O 55.4529 56.4583 3.9081
O 52.4531 53.3933 1.18064
O 50.867 55.0061 -0.183176
O 52.4531 53.3932 3.908
O -54.34 -54.5481 2.54413
Si -55.6716 -55.5159 2.54404
Si -53.3539 -53.2345 2.54409
O -56.867 -51.9222 2.54353
Si -57.885 -53.2157 2.54378
Si -55.5166 -50.9872 2.54374
O -58.7863 -52.9821 3.90747
O -57.0815 -54.6576 2.54392
O -58.7863 -52.9822 1.18005
O -55.6076 -50.1033 3.90749
O -54.1216 -51.8091 2.54363
O -55.6076 -50.1031 1.18008
O -50.9399 -57.7193 -0.183387
Si -52.2104 -58.7659 -0.183405
Si -50.035 -56.3485 -0.183404
O -53.6211 -55.2513 -0.1833
Si -54.559 -56.604 -0.183375
Si -52.3297 -54.2362 -0.183338
O -55.4728 -56.4255 1.18034
O -53.6697 -57.9947 -0.183397
O -55.4728 -56.4255 3.90778
O -52.4739 -53.3596 1.18053
O -50.8876 -54.9722 -0.183837
O -52.4743 -53.3592 3.90799
O -47.3536 -60.6785 2.544
Si -48.5585 -61.8001 2.54403
Si -46.5333 -59.2555 2.54396
O -50.1795 -58.3776 2.54408
Si -51.0339 -59.7846 2.54403
Si -48.952 -57.2862 2.54403
O -51.9568 -59.6618 3.90777
O -50.0619 -61.1187 2.54401
O -51.9569 -59.6618 1.18033
O -49.149 -56.42 3.90792
O -47.4678 -57.9334 2.54355
O -49.1494 -56.4196 1.18043
O -43.5946 -63.4149 -0.183389
Si -44.7296 -64.6071 -0.183444
Si -42.8618 -61.9449 -0.183457
O -46.5547 -61.2894 -0.18344
Si -47.3225 -62.7454 -0.183399
Si -45.3954 -60.1258 -0.183461
O -48.2512 -62.6789 1.1803
O -46.2716 -64.0182 -0.18341
O -48.2511 -62.6789 3.90773
O -45.6446 -59.2731 1.18044
O -43.8747 -60.6818 -0.183846
O -45.645 -59.2728 3.90776
O 39.6619 65.9595 2.54457
Si 40.7235 67.2174 2.54442
Si 39.0183 64.4483 2.54444
O 42.7433 64.014 2.54406
Si 43.4226 65.5134 2.54421
Si 41.6557 62.7832 2.54418
O 44.3535 65.5024 3.90789
O 42.2977 66.7213 2.5443
O 44.3534 65.5025 1.18047
O 41.9557 61.9466 3.90785
O 40.1047 63.2477 2.54439
O 41.9555 61.9466 1.18042
O 35.603 68.2269 -0.182979
Si 36.5868 69.5465 -0.18296
Si 35.0515 66.6797 -0.182934
O 38.7958 66.4706 -0.183028
Si 39.3835 68.0082 -0.183002
Si 37.7843 65.1764 -0.18299
O 40.3133 68.0532 1.18076
O 38.1881 69.1462 -0.183
O 40.3133 68.0532 3.90811
O 38.1341 64.3595 1.18075
O 36.2081 65.5467 -0.183015
O 38.1341 64.3594 3.90819
O 31.4146 70.2455 2.54437
Si 32.3172 71.6221 2.5444
Si 30.9575 68.6679 2.54436
O 34.7077 68.6847 2.54454
Si 35.2016 70.255 2.54448
Si 33.776 67.332 2.5445
O 36.127 70.356 3.90822
O 33.9397 71.3188 2.54445
O 36.1271 70.356 1.18081
O 34.1743 66.5376 3.9082
O 32.1803 67.6067 2.5444
O 34.1743 66.5376 1.18077
O 27.1122 72.0079 -0.182935
Si 27.9302 73.4364 -0.183056
Si 26.751 70.4055 -0.183035
O 30.4933 70.6485 -0.183003
Si 30.8917 72.2457 -0.183025
Si 29.6449 69.2421 -0.183066
O 31.8094 72.4024 1.18071
O 29.568 73.2315 -0.182995
O 31.8094 72.4023 3.90814
O 30.0904 68.4732 1.18067
O 28.0356 69.42 -0.183041
O 30.0904 68.4731 3.9081
O -31.4304 -70.2055 2.54386
Si -32.3329 -71.582 2.54408
Si -30.9732 -68.6278 2.54398
O -34.723 -68.6442 2.54411
Si -35.2169 -70.2144 2.54402
Si -33.7914 -67.2914 2.54398
O -36.1422 -70.3155 3.90776
O -33.9553 -71.2786 2.54409
O -36.1423 -70.3154 1.1803
O -34.1895 -66.4969 3.90779
O -32.1958 -67.5663 2.54375
O -34.19 -66.4967 1.18044
O -27.1283 -71.9684 -0.182631
Si -27.9464 -73.3967 -0.183073
Si -26.7671 -70.366 -0.182905
O -30.5093 -70.6088 -0.183317
Si -30.9077 -72.2059 -0.183334
Si -29.6608 -69.2024 -0.183443
O -31.8254 -72.3624 1.18036
O -29.5841 -73.1919 -0.183259
O -31.8253 -72.3625 3.90774
O -30.106 -68.4334 1.18033
O -28.0515 -69.3803 -0.183672
O -30.1062 -68.4333 3.90776
O -22.7278 -73.4683 2.54347
Si -23.4583 -74.9434 2.544
Si -22.4638 -71.8471 2.5438
O -26.1845 -72.3152 2.5444
Si -26.4861 -73.9334 2.54434
Si -25.4224 -70.8602 2.54451
O -27.3925 -74.1451 3.90814
O -25.1054 -74.8377 2.54417
O -27.3928 -74.145 1.18073
O -25.9129 -70.1197 3.90846
O -23.8053 -70.9407 2.54379
O -25.9138 -70.1193 1.1811
O -18.2448 -74.7003 -0.183101
Si -18.8851 -76.2167 -0.183331
Si -18.079 -73.0661 -0.183228
O -21.7649 -73.7576 -0.183238
Si -21.9683 -75.3911 -0.183415
Si -21.0918 -72.2593 -0.183598
O -22.8605 -75.657 1.18024
O -20.5356 -76.2105 -0.18344
O -22.8603 -75.6569 3.90768
O -21.6265 -71.5495 1.18011
O -19.4728 -72.2423 -0.183685
O -21.6265 -71.5496 3.90754
O 13.6788 75.6984 2.5441
Si 14.2263 77.2507 2.54426
Si 13.6118 74.0572 2.54424
O 17.2495 74.9702 2.54465
Si 17.3539 76.6129 2.5445
Si 16.6679 73.434 2.54447
O 18.2283 76.9323 3.90821
O 15.8742 77.3442 2.54431
O 18.2284 76.9323 1.18083
O 17.2444 72.758 3.90833
O 15.0529 73.3192 2.54422
O 17.245 72.7579 1.18089
O 9.0798 76.3817 -0.183425
Si 9.53297 77.9642 -0.183364
Si 9.11178 74.7395 -0.183432
O 12.6878 75.8695 -0.183093
Si 12.6932 77.5156 -0.183167
Si 12.1999 74.3011 -0.183182
O 13.5469 77.887 1.1805
O 11.1722 78.1566 -0.183253
O 13.5468 77.887 3.90798
O 12.8163 73.6609 1.18055
O 10.5946 74.0893 -0.183338
O 12.8162 73.661 3.9079
O 4.44813 76.7873 2.5444
Si 4.80528 78.3942 2.54419
Si 4.57874 75.15 2.54428
O 8.08033 76.493 2.544
Si 7.98669 78.1364 2.54407
Si 7.68764 74.8981 2.544
O 8.81651 78.5585 3.90773
O 6.42998 78.6849 2.54412
O 8.8164 78.5585 1.18034
O 8.34156 74.2961 3.90768
O 6.09805 74.5902 2.54404
O 8.34157 74.2961 1.18033
O -0.199706 76.9141 -0.183506
Si 0.0602349 78.5395 -0.18344
Si 0.0292228 75.2876 -0.183419
O 3.44379 76.8384 -0.183278
Si 3.25143 78.4732 -0.183252
Si 3.14766 75.2228 -0.183171
O 4.05431 78.9444 1.18049
O 1.66458 78.9272 -0.183345
O 4.05436 78.9444 3.90791
O 3.83626 74.6612 1.18068
O 1.57938 74.8201 -0.183557
O 3.83663 74.6612 3.90805
O -9.09718 -76.3439 -0.183808
O -4.46595 -76.7503 2.54325
Si -4.82321 -78.3571 2.54349
Si -4.5963 -75.1129 2.54338
O -8.09797 -76.4553 2.54439
Si -8.00447 -78.0988 2.5439
Si -7.70504 -74.8605 2.54396
O -8.83423 -78.5208 3.9076
O -6.44791 -78.6475 2.54372
O -8.83425 -78.5207 1.18019
O -8.3584 -74.2584 3.90783
O -6.11544 -74.5528 2.54363
O -8.35902 -74.2584 1.18038
O 0.181514 -76.8774 -0.183267
Si -0.078491 -78.5027 -0.183604
Si -0.0471304 -75.2508 -0.183542
O -3.46179 -76.8015 -0.184119
Si -3.26953 -78.4363 -0.183944
Si -3.16541 -75.1859 -0.184047
O -4.07245 -78.9074 1.17974
O -1.68276 -78.8904 -0.183709
O -4.07231 -78.9074 3.90714
O -3.8544 -74.6242 1.17949
O -1.59719 -74.7832 -0.183729
O -3.85377 -74.6242 3.90694
O 4.82823 -76.7246 2.54353
Si 4.66633 -78.3627 2.54371
Si 4.50206 -75.1148 2.54369
O 1.18695 -76.868 2.54372
Si 1.47704 -78.4884 2.54381
Si 1.38548 -75.2375 2.54387
O 0.704078 -79.0069 3.90758
O 3.08826 -78.8462 2.54372
O 0.703956 -79.0069 1.18012
O 0.664511 -74.7183 3.90773
O 2.92664 -74.7412 2.54382
O 0.664114 -74.7182 1.18024
Si 9.39412 -77.9379 -0.18375
Si 9.03486 -74.7057 -0.183683
O 5.8313 -76.6549 -0.183653
Si 6.21817 -78.2549 -0.183717
Si 5.93132 -75.0154 -0.183734
O 5.47768 -78.819 1.17997
O 7.84795 -78.5153 -0.183743
O 5.47774 -78.8189 3.90741
O 5.17998 -74.5405 1.17986
O 7.43986 -74.4274 -0.18357
O 5.18036 -74.5405 3.90732
O -9.47599 76.3292 -0.183208
O -14.0707 75.6179 2.54358
Si -14.1073 77.2635 2.54365
Si -13.5531 74.059 2.54353
O -10.4732 76.1989 2.54384
Si -10.9562 77.7725 2.54385
Si -10.474 74.5564 2.54403
O -10.2511 78.3803 3.90763
O -12.5989 77.9336 2.54374
O -10.251 78.3804 1.18016
O -9.69582 74.1277 3.90793
O -11.9441 73.878 2.54349
O -9.69516 74.1278 1.18049
O -18.6144 74.6312 -0.183853
Si -18.75 76.2717 -0.183762
Si -18.0038 73.1064 -0.183661
O -15.0583 75.4277 -0.183913
Si -15.6352 76.9693 -0.183787
Si -14.9601 73.7881 -0.183909
O -14.9679 77.6185 1.17988
O -17.2846 77.0312 -0.183751
O -14.968 77.6185 3.90735
O -14.1572 73.4071 1.17983
O -16.3868 73.0225 -0.183926
O -14.1571 73.4071 3.90727
O -23.0902 73.3725 2.5437
Si -23.3245 75.0019 2.54358
Si -22.389 71.8872 2.5434
O -19.5886 74.3819 2.54396
Si -20.2574 75.886 2.54368
Si -19.392 72.7512 2.54379
O -19.6305 76.5743 3.90741
O -21.9076 75.8484 2.5436
O -19.6304 76.5742 1.17999
O -18.5676 72.4193 3.90758
O -20.77 71.901 2.54358
O -18.5674 72.4194 1.18015
Si -27.8143 73.4593 -0.1836
Si -26.693 70.4066 -0.183402
O -24.0478 73.065 -0.184346
Si -24.8059 74.5261 -0.183873
Si -23.7533 71.449 -0.184052
O -24.2215 75.2508 1.1798
O -26.4508 74.3894 -0.183747
O -24.2217 75.2508 3.90723
O -22.9102 71.1675 1.1796
O -25.0777 70.5176 -0.183718
O -22.9106 71.1673 3.90698
O 18.5956 -74.5996 -0.183768
O 23.0724 -73.3454 2.54351
Si 23.3056 -74.9749 2.54346
Si 22.3719 -71.8598 2.54341
O 19.5698 -74.3514 2.54412
Si 20.2378 -75.8559 2.54371
Si 19.3741 -72.7206 2.5439
O 19.6106 -76.5435 3.9075
O 21.8879 -75.8199 2.54357
O 19.6104 -76.5435 1.18
O 18.55 -72.3878 3.90757
O 20.7528 -71.8718 2.54389
O 18.55 -72.3879 1.18024
O 27.4652 -71.8233 -0.183915
Si 27.7965 -73.4357 -0.183956
Si 26.6763 -70.3827 -0.183907
O 24.0299 -73.0391 -0.184093
Si 24.7874 -74.5006 -0.183984
Si 23.7361 -71.4231 -0.184035
O 24.2024 -75.2247 1.17977
O 26.4324 -74.3649 -0.183973
O 24.2024 -75.2247 3.90712
O 22.8934 -71.1406 1.17956
O 25.061 -70.4925 -0.18369
O 22.8937 -71.1405 3.90706
O 31.7574 -70.0369 2.54329
Si 32.1856 -71.6264 2.54345
Si 30.8827 -68.6467 2.54344
O 28.4022 -71.4594 2.54335
Si 29.2468 -72.8723 2.54346
Si 28.0113 -69.8641 2.54351
O 28.7068 -73.6306 3.90718
O 30.8805 -72.6369 2.54342
O 28.7068 -73.6307 1.17974
O 27.153 -69.6332 3.90706
O 29.2771 -68.8546 2.54368
O 27.1536 -69.633 1.17968
Si 36.4568 -69.5539 -0.184072
Si 34.976 -66.6585 -0.184068
O 32.6705 -69.6165 -0.183731
Si 33.599 -70.9757 -0.183963
Si 32.1838 -68.0478 -0.183977
O 33.1061 -71.7656 1.17973
O 35.2154 -70.6417 -0.184012
O 33.1061 -71.7656 3.9072
O 31.3133 -67.8694 1.17974
O 33.386 -66.9634 -0.183834
O 31.3134 -67.8695 3.90714
O -35.9526 68.019 -0.183494
Si -34.9954 66.6842 -0.183561
O -39.9979 65.7268 2.544
Si -40.6149 67.2529 2.54401
Si -38.9619 64.4524 2.54411
O -36.8392 67.5443 2.54373
Si -37.8481 68.845 2.54387
Si -36.2585 66.0079 2.54387
O -37.4034 69.663 3.90756
O -39.4414 68.4138 2.54396
O -37.4035 69.663 1.18013
O -35.3784 65.8826 3.90743
O -37.3931 64.8529 2.54422
O -35.3789 65.8823 1.18005
O -43.8968 63.1937 -0.183568
Si -44.6049 64.6797 -0.18341
Si -42.7858 61.984 -0.18347
O -40.8539 65.1989 -0.183188
Si -41.9396 66.4363 -0.183402
Si -40.1814 63.7004 -0.183309
O -41.5456 67.2798 1.18034
O -43.5039 65.9094 -0.1834
O -41.5454 67.2799 3.9078
O -39.2956 63.6287 1.18038
O -41.2441 62.4788 -0.183067
O -39.2958 63.6287 3.90774
O -47.6369 60.4311 2.54429
Si -48.4332 61.8718 2.54413
Si -46.4549 59.2906 2.54416
O -44.7196 62.6152 2.54399
Si -45.878 63.7848 2.54402
Si -43.958 61.1599 2.54397
O -45.5354 64.6506 3.90769
O -47.4078 63.1652 2.54406
O -45.5355 64.6505 1.18027
O -43.0692 61.1419 3.90755
O -44.9456 59.8769 2.54441
O -43.0697 61.1415 1.18007
Si -52.0856 58.8386 -0.183066
O -48.4236 59.8044 -0.183457
Si -49.6502 60.9021 -0.183297
Si -47.5756 58.3977 -0.18328
O -49.3603 61.7868 1.18042
O -51.14 60.1915 -0.183164
O -49.3603 61.7869 3.90785
O -46.6874 58.433 1.18033
O -48.4841 57.0575 -0.182947
O -46.6876 58.4328 3.90779
O 43.8779 -63.1701 -0.183397
Si 42.7669 -61.9604 -0.183488
O 47.6177 -60.4079 2.54366
Si 48.4139 -61.8486 2.54373
Si 46.4357 -59.2674 2.54372
O 44.7006 -62.5921 2.54388
Si 45.8588 -63.7618 2.5438
Si 43.9391 -61.1368 2.54393
O 45.5163 -64.6274 3.90757
O 47.3887 -63.1421 2.54375
O 45.5162 -64.6275 1.18014
O 43.0508 -61.1181 3.90778
O 44.9265 -59.8537 2.5434
O 43.0504 -61.1184 1.18039
O 51.1839 -57.425 -0.183874
Si 52.0657 -58.815 -0.183783
Si 49.9352 -56.3579 -0.183797
O 48.4039 -59.7812 -0.183621
Si 49.6307 -60.8788 -0.183694
Si 47.556 -58.3745 -0.183694
O 49.341 -61.7636 1.17999
O 51.1203 -60.168 -0.183711
O 49.341 -61.7635 3.90744
O 46.6682 -58.4095 1.18013
O 48.4642 -57.0341 -0.183952
O 46.668 -58.4097 3.90751
O 54.5637 -54.2324 2.54395
Si 55.5278 -55.5666 2.5438
Si 53.253 -53.2426 2.54384
O 51.931 -56.7519 2.54378
Si 53.2217 -57.7735 2.54366
Si 50.9996 -55.399 2.54364
O 52.9859 -58.6742 3.90737
O 54.6658 -56.9742 2.54373
O 52.986 -58.6741 1.1799
O 50.1155 -55.4875 3.90744
O 51.8253 -54.0063 2.5435
O 50.1153 -55.4878 1.18003
Si 58.7873 -52.1149 -0.183505
O 55.2689 -53.5155 -0.183767
Si 56.6189 -54.4573 -0.183627
Si 54.2575 -52.2213 -0.18359
O 56.4378 -55.3706 1.18004
O 58.0119 -53.5721 -0.18362
O 56.4379 -55.3706 3.9075
O 53.3804 -52.3631 1.18021
O 54.9975 -50.7812 -0.183787
O 53.3802 -52.3633 3.90762
O -57.7659 50.8652 -0.183359
Si -56.3979 49.9562 -0.183294
O -60.7375 47.2892 2.54455
Si -61.8551 48.4978 2.5444
Si -59.3172 46.4642 2.54449
O -58.4269 50.1071 2.54423
Si -59.8311 50.9661 2.54421
Si -57.3395 48.876 2.54414
O -59.7052 51.8886 3.90792
O -61.1685 49.9988 2.54435
O -59.7052 51.8885 1.18046
O -56.4722 49.0706 3.90778
O -57.9918 47.3941 2.54438
O -56.4723 49.0705 1.18036
O -63.4883 43.5405 -0.183056
Si -64.6767 44.6795 -0.182986
Si -62.0208 42.8028 -0.182989
O -61.3517 46.4926 -0.183076
Si -62.8052 47.2653 -0.183026
Si -60.192 45.3294 -0.182946
O -62.7351 48.1936 1.18071
O -64.0819 46.2191 -0.183028
O -62.7351 48.1936 3.9081
O -59.3381 45.5758 1.18075
O -60.7538 43.8109 -0.183094
O -59.3381 45.5758 3.90823