3120
 Atoms. Timestep: 15872
O 38.2555 4.34692 3.27688
Si 39.8421 4.72197 3.04403
Si 36.6203 4.3772 3.14073
O 38.4736 1.67937 2.52393
Si 40.1003 1.56869 2.75771
Si 36.8644 1.38801 2.66284
O 40.5329 0.680685 4.0819
O 40.4893 3.18776 2.90064
O 40.6192 0.757318 1.40545
O 36.4911 0.433916 3.91217
O 36.1991 2.83866 2.89924
O 36.3711 0.770374 1.25003
O 37.4476 9.02804 0.185201
Si 39.002 9.53663 0.351485
Si 35.8362 8.85233 0.442651
O 37.975 6.30237 0.171895
Si 39.6066 6.41573 0.341932
Si 36.4126 5.86959 0.428846
O 40.1243 5.66926 1.72033
O 39.81 8.07409 0.346717
O 40.2215 5.60619 25.8646
O 36.098 5.26364 1.8948
O 35.6014 7.2605 0.303563
O 36.0357 4.90139 -0.810343
O 36.1962 13.4555 2.85008
Si 37.6516 14.2195 2.80792
Si 34.5967 13.1687 2.6194
O 36.9726 10.9628 3.27481
Si 38.589 11.1968 3.0543
Si 35.4694 10.312 3.15275
O 39.2685 10.5175 4.40706
O 38.6241 12.8628 2.92031
O 39.2043 10.4222 1.73049
O 35.1261 9.62392 4.5779
O 34.5036 11.5768 2.88169
O 35.3282 9.28043 1.91716
O 34.4025 17.7299 0.64219
Si 35.7286 18.687 0.44753
Si 32.833 17.2505 0.623324
O 35.4531 15.4451 -0.0946642
Si 37.0438 15.8208 0.109288
Si 34.0645 14.571 -0.078072
O 37.7639 15.0915 1.40832
O 36.8706 17.4759 0.280937
O 37.7668 15.2504 25.567
O 34.0861 13.4814 1.11641
O 32.9411 15.6776 0.272085
O 33.8236 13.9349 25.286
O 32.0232 21.7778 2.95593
Si 33.2418 22.8825 2.91867
Si 30.5416 21.1012 2.74412
O 33.3834 19.5912 3.0718
Si 34.9138 20.1936 3.11679
Si 32.1175 18.5682 3.29295
O 35.651 19.7048 4.51276
O 34.5291 21.8188 3.01828
O 35.7672 19.6101 1.82257
O 32.0198 17.9775 4.79614
O 30.8539 19.5388 3.01844
O 32.1956 17.4818 2.09485
O 29.2241 25.4693 0.716003
Si 30.2685 26.7314 0.548729
Si 27.8177 24.6232 0.73047
O 30.803 23.5199 0.0376898
Si 32.2526 24.28 0.221983
Si 29.6758 22.3267 0.0478314
O 33.1316 23.7615 1.5237
O 31.6755 25.8415 0.385396
O 33.0954 23.9047 25.6813
O 29.9616 21.2759 1.24363
O 28.312 23.1228 0.389922
O 29.6039 21.6529 25.411
O 25.9409 28.7949 2.8123
Si 26.8263 30.1752 2.962
Si 24.651 27.7793 2.79823
O 27.7644 27.0397 3.21235
Si 29.1082 27.9894 3.22142
Si 26.7986 25.7252 3.40394
O 29.9456 27.7042 4.61737
O 28.3356 29.4685 3.10339
O 30.0765 27.6255 1.92874
O 26.845 25.1184 4.90355
O 25.3351 26.3495 3.11457
O 27.1552 24.6946 2.20711
O 22.256 31.7116 0.459676
Si 22.992 33.1828 0.493026
Si 21.1176 30.5452 0.664799
O 24.3051 30.1731 0.301626
Si 25.5212 31.2815 0.288758
Si 23.5039 28.7504 0.124201
O 26.52 31.044 1.58711
O 24.5766 32.6579 0.391013
O 26.3969 31.0968 25.7342
O 23.9734 27.7744 1.32699
O 21.9743 29.2 0.395718
O 23.6282 28.1366 25.4668
O 18.3073 34.1544 2.6897
Si 18.8356 35.7041 2.86766
Si 17.3025 32.8565 2.69588
O 20.4889 32.8967 3.36893
Si 21.5671 34.1287 3.1894
Si 19.8662 31.378 3.36074
O 22.4868 34.0828 4.56532
O 20.4678 35.3784 3.02856
O 22.5737 33.9636 1.8878
O 20.046 30.7204 4.83062
O 18.3054 31.6335 3.02824
O 20.5057 30.4996 2.16235
O 14.0474 36.0916 0.426755
Si 14.3926 37.7005 0.409819
Si 13.2065 34.6885 0.571461
O 16.3955 35.0922 0.227348
Si 17.3038 36.4641 0.196836
Si 15.9545 33.5228 0.024652
O 18.336 36.4764 1.49115
O 16.0566 37.5732 0.301099
O 18.1886 36.4934 25.6366
O 16.6438 32.6834 1.22562
O 14.3611 33.59 0.295085
O 16.2216 32.9698 25.3619
O 9.58904 37.5238 2.871
Si 9.74916 39.1615 2.85542
Si 8.93064 36.0309 2.68088
O 12.0236 36.82 3.21671
Si 12.7827 38.2764 3.09983
Si 11.7896 35.1957 3.26076
O 13.6844 38.4394 4.47688
O 11.4162 39.2313 2.96788
O 13.7952 38.3735 1.79594
O 12.1273 34.6154 4.73461
O 10.2055 35.0748 2.95916
O 12.6008 34.4801 2.05798
O 5.02047 38.414 0.66484
Si 4.97085 40.05 0.481
Si 4.54183 36.8438 0.647875
O 7.50586 38.0083 -0.00501849
Si 8.08249 39.5419 0.1608
Si 7.46446 36.3675 -0.0129785
O 9.08439 39.7463 1.46044
O 6.61251 40.3224 0.32067
O 8.95465 39.8211 25.6169
O 8.37219 35.7679 1.18458
O 5.91316 36.0546 0.317147
O 7.8636 35.8228 25.3488
O 0.338243 38.7274 2.97767
Si 0.108664 40.3566 2.95556
Si 0.0559134 37.1196 2.7962
O 2.9089 38.6163 3.10825
Si 3.26992 40.221 3.15083
Si 3.04405 36.9926 3.31804
O 4.08829 40.5589 4.54555
O 1.71214 40.8202 3.05319
O 4.22962 40.5992 1.85584
O 3.49224 36.5697 4.81468
O 1.52615 36.4975 3.05753
O 3.98026 36.4457 2.11503
O -4.32507 38.5121 0.504513
Si -4.7514 40.1014 0.517264
Si -4.41857 36.8832 0.693229
O -1.79429 38.7046 0.107093
Si -1.60067 40.3327 0.261061
Si -1.44979 37.0994 0.102463
O -0.684661 40.7698 1.56642
O -3.21392 40.749 0.401592
O -0.811117 40.8105 25.7222
O -0.436694 36.7237 1.30622
O -2.89028 36.4336 0.411803
O -0.922065 36.6604 25.4697
O -8.91559 37.7462 2.71204
Si -9.53885 39.2601 2.89243
Si -8.81339 36.1079 2.72413
O -6.44792 38.2357 3.37608
Si -6.44592 39.8742 3.21171
Si -5.9097 36.6851 3.38683
O -5.72734 40.4403 4.59099
O -8.09635 40.0905 3.052
O -5.57829 40.4169 1.91258
O -5.34666 36.3156 4.86065
O -7.25279 35.8484 3.05582
O -4.84865 36.4415 2.18989
O -13.4099 36.3963 0.399348
Si -14.2003 37.8394 0.420512
Si -13.1075 34.7926 0.584033
O -10.9677 37.1938 0.259996
Si -11.1925 38.8233 0.222177
Si -10.2674 35.7223 0.0534182
O -10.4256 39.5132 1.5173
O -12.8617 38.8371 0.321371
O -10.5442 39.4276 25.6625
O -9.19758 35.541 1.25548
O -11.5135 34.7256 0.318172
O -9.70086 35.4825 25.3912
O -17.6924 34.5512 2.85657
Si -18.6585 35.8833 2.85299
Si -17.2048 32.9936 2.6736
O -15.3989 35.6227 3.27221
Si -15.7927 37.2141 3.11507
Si -14.5079 34.2438 3.27791
O -15.2223 37.9394 4.48918
O -17.4492 37.0331 2.97184
O -15.0879 37.946 1.81028
O -13.8637 34.0184 4.74711
O -15.6179 33.1119 2.96252
O -13.4254 34.2528 2.07617
O -21.702 32.2058 0.617096
Si -22.8356 33.3913 0.471169
Si -21.0311 30.7081 0.651331
O -19.5837 33.5347 0.00238016
Si -20.1632 35.0682 0.15936
Si -18.526 32.2794 -0.0189621
O -19.5456 35.885 1.45854
O -21.7836 34.6829 0.316045
O -19.6908 35.851 25.6144
O -17.4458 32.4298 1.17578
O -19.4804 31.0189 0.316964
O -17.8762 32.1352 25.3388
O -25.3993 29.3444 2.72458
Si -26.6662 30.3853 2.87901
Si -24.5426 27.944 2.71222
O -23.4448 30.9404 3.15536
Si -24.2238 32.3899 3.14592
Si -22.248 29.829 3.32713
O -23.8408 33.1921 4.5395
O -25.7846 31.7997 3.0235
O -23.7435 33.3038 1.85209
O -21.6336 29.7981 4.82414
O -23.0418 28.4513 3.03198
O -21.1835 30.0663 2.13074
O -28.7315 26.0278 0.37079
Si -30.1065 26.9307 0.408749
Si -27.7048 24.763 0.582272
O -26.9607 27.8826 0.220892
Si -27.9198 29.2194 0.206104
Si -25.6422 26.9204 0.03853
O -27.5658 30.184 1.50409
O -29.398 28.4427 0.308159
O -27.6323 30.0661 25.6509
O -24.6166 27.2717 1.24043
O -26.2685 25.4547 0.31122
O -25.0214 26.9709 25.3798
O -31.6173 22.3906 2.57585
Si -33.0937 23.0924 2.77766
Si -30.4398 21.2476 2.59634
O -30.1138 24.4125 3.29158
Si -31.2132 25.6245 3.10583
Si -28.6772 23.6189 3.27875
O -31.06 26.5346 4.48093
O -32.5813 24.6758 2.94454
O -30.9305 26.6045 1.80359
O -28.0046 23.7177 4.74948
O -29.1104 22.1003 2.93709
O -27.7308 24.1567 2.08238
O -34.0463 18.3213 0.567373
Si -35.5751 18.8968 0.349162
Si -32.7121 17.3717 0.438575
O -32.7579 20.6039 0.15596
Si -34.022 21.6543 0.109638
Si -31.2548 19.9854 -0.0728197
O -33.9208 22.6853 1.40168
O -35.2578 20.5326 0.219164
O -33.9493 22.5317 25.5457
O -30.3387 20.5678 1.12882
O -31.5011 18.408 0.180181
O -30.6833 20.1889 25.2619
O -36.0183 13.9892 2.84784
Si -37.589 14.4446 3.01728
Si -34.5855 13.2304 3.10357
O -34.9179 16.5407 2.84106
Si -36.331 17.3634 3.01354
Si -33.3818 16.0209 3.09492
O -36.3396 18.2749 4.39012
O -37.4328 16.1079 3.01739
O -36.3853 18.3759 1.70016
O -32.7851 16.3395 4.56412
O -33.4954 14.4146 2.96538
O -32.5245 16.6161 1.85875
O -37.484 9.62572 0.157477
Si -39.1165 9.81591 0.110605
Si -36.0003 8.96429 -0.0777038
O -36.7146 12.1271 0.572752
Si -38.1837 12.8408 0.352985
Si -35.1064 11.8167 0.447029
O -38.3619 13.7863 1.70489
O -39.1528 11.4849 0.221153
O -38.2561 13.8256 25.8628
O -34.4325 12.1945 1.8704
O -35.0247 10.2266 0.180577
O -34.4076 12.586 -0.790556
O -38.4143 5.08919 3.30332
Si -40.0497 5.04033 3.11494
Si -36.8482 4.59925 3.29495
O -37.9924 7.56646 2.57008
Si -39.5186 8.15003 2.77837
Si -36.3527 7.50567 2.59123
O -39.7006 9.15824 4.07797
O -40.3093 6.68525 2.94937
O -39.7942 9.03044 1.40209
O -35.7571 8.41808 3.78587
O -36.0496 5.95862 2.94309
O -35.7926 7.89608 1.12156
O -38.7265 0.41971 0.191428
Si -40.3531 0.171089 0.204374
Si -37.1177 0.130989 0.033188
O -38.6215 2.9673 0.385179
Si -40.2251 3.33474 0.4181
Si -36.9988 3.10776 0.59877
O -40.5602 4.15445 1.81399
O -40.8216 1.77441 0.31336
O -40.5987 4.29948 -0.875713
O -36.5841 3.5396 2.102
O -36.4974 1.59649 0.318165
O -36.4558 4.05353 -0.597908
O -38.47 -4.2494 3.12483
Si -40.0542 -4.69442 3.13469
Si -36.841 -4.32905 3.31894
O -38.6876 -1.73356 2.74976
Si -40.3179 -1.54301 2.88038
Si -37.0874 -1.36929 2.70992
O -40.7663 -0.627993 4.18399
O -40.7182 -3.16239 3.01818
O -40.7924 -0.756215 1.50358
O -36.7151 -0.349102 3.9082
O -36.4051 -2.79967 3.02662
O -36.6659 -0.856083 1.23307
O -37.6324 -8.83198 -0.0804981
Si -39.1351 -9.47307 0.131239
Si -35.9968 -8.69781 -0.0475659
O -38.1656 -6.37446 0.631574
Si -39.8035 -6.3899 0.462298
Si -36.6237 -5.81321 0.645409
O -40.3791 -5.67657 1.84146
O -39.9899 -8.04498 0.299726
O -40.3571 -5.52751 -0.836829
O -36.2639 -5.25605 2.12351
O -35.7643 -7.13698 0.298672
O -36.4011 -4.74266 -0.546602
O -36.1722 -13.3399 3.27906
Si -37.6146 -14.1064 3.06124
Si -34.5782 -12.9646 3.15043
O -37.0422 -10.8567 2.89146
Si -38.6641 -11.1196 2.83133
Si -35.5836 -10.1429 2.65156
O -39.3757 -10.3662 4.12359
O -38.6348 -12.7886 2.935
O -39.2743 -10.4858 1.43222
O -35.4133 -9.07117 3.85407
O -34.5602 -11.3697 2.89785
O -35.3638 -9.58039 1.15043
O -34.2166 -17.6812 0.189601
Si -35.5982 -18.5564 0.359761
Si -32.6992 -17.1071 0.439479
O -35.4084 -15.1713 0.188169
Si -36.9608 -15.6856 0.358573
Si -34.0036 -14.3605 0.439935
O -37.6525 -15.0898 1.73427
O -36.7447 -17.3418 0.362269
O -37.7571 -15.0595 25.8795
O -33.8499 -13.6975 1.90736
O -32.8707 -15.5055 0.311006
O -33.8853 -13.3248 -0.797533
O -31.916 -21.673 2.88133
Si -33.1435 -22.7659 2.83116
Si -30.4363 -21.0012 2.6505
O -33.2822 -19.4309 3.27766
Si -34.7893 -20.0619 3.06232
Si -31.9818 -18.4353 3.14978
O -35.6169 -19.5694 4.41314
O -34.4165 -21.6862 2.93638
O -35.5752 -19.4684 1.7358
O -31.8227 -17.6701 4.56841
O -30.7363 -19.4321 2.89871
O -32.0864 -17.4084 1.90595
O -29.1479 -25.3891 0.642164
Si -30.2028 -26.6406 0.46022
Si -27.7388 -24.548 0.635367
O -30.7169 -23.4191 -0.0714118
Si -32.1674 -24.1725 0.13212
Si -29.5791 -22.2365 -0.047708
O -33.0403 -23.6415 1.43331
O -31.6022 -25.7381 0.298329
O -33.0092 -23.7923 25.5918
O -29.8579 -21.1872 1.15077
O -28.2221 -23.0447 0.292732
O -29.5009 -21.5508 25.3207
O -25.8807 -28.7414 2.90656
Si -26.7838 -30.117 2.91591
Si -24.5917 -27.737 2.74415
O -27.7067 -26.9601 3.09976
Si -29.051 -27.9084 3.13072
Si -26.7274 -25.6575 3.30652
O -29.8862 -27.6117 4.52582
O -28.2893 -29.3945 3.02587
O -30.0176 -27.5431 1.83645
O -26.7731 -25.0538 4.80736
O -25.2679 -26.2958 3.0281
O -27.0678 -24.623 2.10824
O -22.2583 -31.6635 0.599841
Si -22.9701 -33.1449 0.50521
Si -21.0914 -30.5115 0.681723
O -24.2547 -30.1516 0.0894799
Si -25.4867 -31.236 0.224476
Si -23.4545 -28.7186 0.0531818
O -26.4675 -30.9558 1.52697
O -24.5521 -32.6166 0.367821
O -26.3881 -31.0651 25.6817
O -23.9659 -27.7603 1.25169
O -21.9343 -29.1673 0.370673
O -23.5549 -28.0602 25.4117
O -18.2797 -34.1142 2.8621
Si -18.8061 -35.6724 2.9296
Si -17.2657 -32.8269 2.75516
O -20.4525 -32.8602 3.24197
Si -21.5429 -34.0922 3.18626
Si -19.8392 -31.3417 3.36269
O -22.4411 -34.0218 4.5728
O -20.4422 -35.3462 3.0591
O -22.5601 -33.9542 1.88831
O -20.0258 -30.7341 4.85162
O -18.2712 -31.5975 3.05981
O -20.4471 -30.4389 2.16537
O -14.0283 -36.0606 0.68353
Si -14.365 -37.6652 0.52757
Si -13.1851 -34.6518 0.693744
O -16.3413 -35.0814 0.163923
Si -17.2735 -36.4358 0.245278
Si -15.9202 -33.4974 0.0707057
O -18.2983 -36.4182 1.5439
O -16.0267 -37.5432 0.380768
O -18.1769 -36.4826 25.6956
O -16.6403 -32.682 1.26871
O -14.3334 -33.5588 0.376855
O -16.1806 -32.9064 25.4208
O -9.55615 -37.4731 2.99469
Si -9.71192 -39.1113 2.9914
Si -8.89482 -35.9788 2.82984
O -12.0097 -36.7653 3.18442
Si -12.7515 -38.2343 3.20027
Si -11.7654 -35.1514 3.36703
O -13.6329 -38.3729 4.59123
O -11.3794 -39.185 3.09622
O -13.771 -38.3683 1.9032
O -12.1019 -34.6233 4.85954
O -10.1749 -35.027 3.09891
O -12.5508 -34.4052 2.16393
O -4.96992 -38.3606 0.554389
Si -4.92734 -40.0057 0.553755
Si -4.48952 -36.7995 0.727621
O -7.46711 -37.9541 0.161244
Si -8.04427 -39.4902 0.298817
Si -7.42643 -36.313 0.138181
O -9.03852 -39.7029 1.60306
O -6.57381 -40.2746 0.436541
O -8.92169 -39.7648 25.758
O -8.32113 -35.7054 1.34119
O -5.86922 -36.0033 0.444852
O -7.8337 -35.7698 25.5021
O -0.320596 -38.6992 2.75649
Si -0.0762376 -40.3183 2.93417
Si -0.0312475 -37.0832 2.76997
O -2.83489 -38.5915 3.39561
Si -3.22701 -40.1838 3.2465
Si -2.99259 -36.9579 3.41964
O -4.05822 -40.5614 4.62657
O -1.67416 -40.7843 3.0912
O -4.19675 -40.5103 1.94733
O -3.4538 -36.4702 4.8943
O -1.48777 -36.4623 3.0965
O -3.96216 -36.4657 2.22131
O 4.37511 -38.4572 0.413851
Si 4.78858 -40.0492 0.456899
Si 4.45641 -36.8301 0.623644
O 1.80201 -38.6509 0.303755
Si 1.63301 -40.287 0.263822
Si 1.47409 -37.0544 0.0993069
O 0.725672 -40.7751 1.5597
O 3.25073 -40.698 0.360362
O 0.858996 -40.7204 25.7049
O 0.480031 -36.6228 1.30272
O 2.92333 -36.385 0.361531
O 0.977054 -36.6848 25.4386
O 8.95326 -37.7002 2.66018
Si 9.57724 -39.2142 2.8344
Si 8.85506 -36.0618 2.6638
O 6.47862 -38.1864 3.33789
Si 6.48325 -39.823 3.15397
Si 5.94858 -36.6328 3.32058
O 5.75969 -40.3962 4.52855
O 8.13304 -40.0417 2.994
O 5.61803 -40.3603 1.8513
O 5.37426 -36.2531 4.78759
O 7.29412 -35.7998 2.99185
O 4.89092 -36.3926 2.12017
O 13.4449 -36.3571 0.362526
Si 14.2391 -37.7983 0.370422
Si 13.1481 -34.751 0.534646
O 11.0124 -37.1493 0.191074
Si 11.2314 -38.7799 0.163198
Si 10.3096 -35.6779 -0.00778695
O 10.4618 -39.4669 1.45805
O 12.9005 -38.7957 0.266573
O 10.5831 -39.3846 25.6037
O 9.23906 -35.4988 1.19374
O 11.5553 -34.6819 0.261907
O 9.74204 -35.4352 25.3307
O 17.7282 -34.5103 2.79426
Si 18.6961 -35.8413 2.80147
Si 17.2444 -32.9504 2.62201
O 15.4411 -35.5798 3.20772
Si 15.8313 -37.1731 3.06349
Si 14.5483 -34.2021 3.22699
O 15.261 -37.8949 4.43907
O 17.488 -36.9921 2.9223
O 15.1276 -37.9076 1.75949
O 13.9094 -33.9803 4.6989
O 15.6577 -33.069 2.91249
O 13.4647 -34.2083 2.02613
O 21.7499 -32.1559 0.602335
Si 22.8714 -33.3489 0.42353
Si 21.0723 -30.6606 0.592262
O 19.6232 -33.4907 -0.0383978
Si 20.1999 -35.0259 0.109192
Si 18.5662 -32.2354 -0.0694857
O 19.5844 -35.8447 1.40783
O 21.8198 -34.6396 0.265405
O 19.7276 -35.8062 25.5631
O 17.4861 -32.381 1.12622
O 19.522 -30.974 0.259881
O 17.9175 -32.0941 25.2876
O 25.4693 -29.2867 2.93065
Si 26.7187 -30.3567 2.89629
Si 24.6123 -27.9002 2.72805
O 23.4708 -30.9076 3.05694
Si 24.2606 -32.3505 3.09393
Si 22.2922 -29.7821 3.26308
O 23.8701 -33.1471 4.48781
O 25.8246 -31.7666 2.9951
O 23.7905 -33.2682 1.79842
O 21.6786 -29.7595 4.76049
O 23.0998 -28.4066 2.99575
O 21.228 -29.9954 2.06151
O 28.7932 -26.0562 0.645885
Si 30.1774 -26.9373 0.509279
Si 27.7848 -24.7617 0.688183
O 27.0471 -27.8595 0.0248646
Si 27.9827 -29.2037 0.200085
Si 25.7238 -26.8879 0.0322576
O 27.5799 -30.1392 1.50302
O 29.4635 -28.4423 0.356196
O 27.713 -30.086 25.66
O 24.7167 -27.2932 1.23143
O 26.3519 -25.4357 0.362256
O 25.0412 -26.9035 25.3977
O 31.7075 -22.4011 2.77017
Si 33.1866 -23.1102 2.91776
Si 30.5435 -21.2435 2.75174
O 30.1875 -24.4115 3.20368
Si 31.2877 -25.6352 3.1852
Si 28.7588 -23.6178 3.36495
O 31.1076 -26.5071 4.57784
O 32.6647 -24.6931 3.06116
O 31.0364 -26.6358 1.89099
O 28.1477 -23.7342 4.85926
O 29.2046 -22.0914 3.0702
O 27.7831 -24.1018 2.16742
O 34.1625 -18.3936 0.417701
Si 35.7141 -18.9408 0.450029
Si 32.8656 -17.4079 0.628023
O 32.8813 -20.609 0.253084
Si 34.1294 -21.6811 0.244101
Si 31.3705 -19.9893 0.0772405
O 34.0117 -22.7015 1.54227
O 35.3827 -20.5776 0.347551
O 34.051 -22.5727 25.6894
O 30.458 -20.5752 1.2788
O 31.6328 -18.4178 0.353498
O 30.7771 -20.1842 25.4191
O 36.1003 -14.1804 2.64701
Si 37.7063 -14.5013 2.82058
Si 34.6873 -13.3457 2.64234
O 35.124 -16.4929 3.33155
Si 36.4804 -17.4086 3.14643
Si 33.5389 -16.0668 3.32429
O 36.5462 -18.3283 4.52245
O 37.5847 -16.1624 2.98277
O 36.4375 -18.429 1.84507
O 32.9114 -16.3208 4.79614
O 33.5977 -14.4887 2.98347
O 32.7466 -16.814 2.12858
O 37.4741 -9.70084 0.35895
Si 39.1145 -9.83062 0.360189
Si 35.9733 -9.06014 0.543444
O 36.7902 -12.1556 0.170148
Si 38.2667 -12.8813 0.148653
Si 35.1757 -11.9285 -0.0297342
O 38.4074 -13.9043 1.44381
O 39.2042 -11.4987 0.252715
O 38.408 -13.7584 25.5895
O 34.4341 -12.7274 1.16684
O 35.0334 -10.344 0.257599
O 34.6665 -12.2549 25.3042
O 38.2841 -5.06102 2.51011
Si 39.916 -5.0261 2.73894
Si 36.6976 -4.6523 2.6257
O 37.9264 -7.60136 3.2168
Si 39.4682 -8.15319 3.05294
Si 36.2864 -7.5936 3.23681
O 39.7582 -9.02477 4.43112
O 40.2156 -6.66437 2.89208
O 39.691 -9.15092 1.75232
O 35.7525 -7.99669 4.71136
O 35.9422 -6.04771 2.92122
O 35.6985 -8.50747 2.03915
O 38.5151 -0.288946 0.265557
Si 40.1437 -0.140987 0.0929226
Si 36.9028 -0.118352 0.0082084
O 38.4407 -3.06431 0.236953
Si 40.0562 -3.31931 0.0746124
Si 36.8241 -3.15432 -0.0308285
O 40.4763 -4.2509 1.38237
O 40.6148 -1.74419 0.086162
O 40.3971 -4.15329 25.5254
O 36.2504 -4.04263 1.19353
O 36.3311 -1.62423 0.123915
O 36.4035 -3.64196 25.3201
O 38.2555 4.34692 8.64383
Si 39.8421 4.72198 8.41098
Si 36.6203 4.3772 8.50768
O 38.4736 1.67937 7.89088
Si 40.1003 1.56869 8.12466
Si 36.8644 1.38801 8.02979
O 40.5329 0.680687 9.44885
O 40.4893 3.18776 8.26759
O 40.6192 0.757315 6.7724
O 36.4911 0.433917 9.27912
O 36.1991 2.83866 8.26619
O 36.3711 0.770371 6.61698
O 37.4476 9.02804 5.55215
Si 39.002 9.53663 5.71844
Si 35.8362 8.85233 5.8096
O 37.975 6.30237 5.53885
Si 39.6066 6.41573 5.70889
Si 36.4126 5.8696 5.7958
O 40.1243 5.66926 7.08728
O 39.81 8.07409 5.71367
O 40.2215 5.6062 4.39679
O 36.098 5.26364 7.26175
O 35.6014 7.26049 5.67051
O 36.0357 4.90139 4.55661
O 36.1962 13.4555 8.21703
Si 37.6516 14.2195 8.17487
Si 34.5967 13.1687 7.98635
O 36.9726 10.9628 8.64176
Si 38.589 11.1968 8.42125
Si 35.4694 10.312 8.5197
O 39.2685 10.5175 9.77402
O 38.6241 12.8628 8.28726
O 39.2043 10.4222 7.09744
O 35.1261 9.62392 9.94485
O 34.5036 11.5768 8.24864
O 35.3282 9.28043 7.28411
O 34.4025 17.7299 6.00914
Si 35.7286 18.687 5.81448
Si 32.833 17.2505 5.99027
O 35.4531 15.4451 5.27229
Si 37.0438 15.8208 5.47624
Si 34.0645 14.571 5.28888
O 37.7639 15.0915 6.77527
O 36.8706 17.4759 5.64789
O 37.7668 15.2504 4.09921
O 34.0861 13.4814 6.48336
O 32.9411 15.6776 5.63904
O 33.8236 13.9349 3.81821
O 32.0232 21.7778 8.32288
Si 33.2418 22.8825 8.28563
Si 30.5416 21.1012 8.11107
O 33.3834 19.5912 8.43875
Si 34.9138 20.1936 8.48375
Si 32.1175 18.5682 8.6599
O 35.651 19.7048 9.87971
O 34.5291 21.8188 8.38523
O 35.7672 19.6101 7.18952
O 32.0198 17.9775 10.1631
O 30.8539 19.5388 8.38539
O 32.1956 17.4818 7.46181
O 29.2241 25.4693 6.08295
Si 30.2685 26.7314 5.91568
Si 27.8177 24.6232 6.09742
O 30.803 23.5199 5.40464
Si 32.2526 24.28 5.58893
Si 29.6758 22.3267 5.41478
O 33.1316 23.7615 6.89065
O 31.6755 25.8415 5.75235
O 33.0954 23.9047 4.2135
O 29.9616 21.2759 6.61058
O 28.312 23.1228 5.75687
O 29.6039 21.6529 3.94315
O 25.9409 28.7949 8.17925
Si 26.8263 30.1752 8.32895
Si 24.651 27.7793 8.16518
O 27.7644 27.0397 8.5793
Si 29.1082 27.9894 8.58836
Si 26.7986 25.7251 8.77089
O 29.9456 27.7042 9.98432
O 28.3356 29.4685 8.47035
O 30.0765 27.6255 7.29569
O 26.845 25.1184 10.2705
O 25.3351 26.3495 8.48152
O 27.1552 24.6946 7.57406
O 22.256 31.7116 5.82663
Si 22.992 33.1828 5.85998
Si 21.1176 30.5452 6.03175
O 24.3051 30.1731 5.66858
Si 25.5212 31.2815 5.65571
Si 23.5039 28.7504 5.49115
O 26.52 31.044 6.95406
O 24.5766 32.6579 5.75796
O 26.3969 31.0968 4.26643
O 23.9734 27.7744 6.69394
O 21.9743 29.2 5.76267
O 23.6282 28.1366 3.999
O 18.3073 34.1544 8.05665
Si 18.8356 35.7041 8.23461
Si 17.3025 32.8565 8.06284
O 20.4889 32.8967 8.73588
Si 21.5671 34.1287 8.55636
Si 19.8662 31.378 8.72769
O 22.4868 34.0828 9.93227
O 20.4678 35.3784 8.3955
O 22.5737 33.9636 7.25476
O 20.046 30.7204 10.1976
O 18.3054 31.6335 8.39519
O 20.5057 30.4996 7.5293
O 14.0474 36.0916 5.79371
Si 14.3926 37.7005 5.77678
Si 13.2065 34.6885 5.93842
O 16.3955 35.0922 5.5943
Si 17.3038 36.4641 5.56379
Si 15.9545 33.5228 5.3916
O 18.336 36.4764 6.85811
O 16.0566 37.5732 5.66805
O 18.1886 36.4934 4.16882
O 16.6438 32.6834 6.59258
O 14.3611 33.59 5.66204
O 16.2216 32.9698 3.89413
O 9.58904 37.5238 8.23796
Si 9.74917 39.1616 8.22237
Si 8.93064 36.0309 8.04783
O 12.0236 36.82 8.58366
Si 12.7827 38.2764 8.46678
Si 11.7896 35.1957 8.62771
O 13.6844 38.4394 9.84383
O 11.4162 39.2313 8.33484
O 13.7952 38.3735 7.16289
O 12.1273 34.6154 10.1016
O 10.2055 35.0748 8.32611
O 12.6008 34.4801 7.42493
O 5.02046 38.414 6.03179
Si 4.97085 40.05 5.84795
Si 4.54183 36.8438 6.01482
O 7.50587 38.0083 5.36194
Si 8.08249 39.5419 5.52775
Si 7.46446 36.3675 5.35397
O 9.08439 39.7463 6.82738
O 6.61251 40.3224 5.68762
O 8.95465 39.8211 4.14909
O 8.37218 35.7679 6.55153
O 5.91316 36.0546 5.6841
O 7.8636 35.8228 3.88104
O 0.338241 38.7274 8.34462
Si 0.108661 40.3566 8.32251
Si 0.0559128 37.1196 8.16315
O 2.9089 38.6163 8.4752
Si 3.26992 40.221 8.51778
Si 3.04405 36.9926 8.68499
O 4.08829 40.5589 9.9125
O 1.71213 40.8202 8.42014
O 4.22962 40.5992 7.22279
O 3.49224 36.5697 10.1816
O 1.52614 36.4975 8.42448
O 3.98027 36.4457 7.48198
O -4.32506 38.5121 5.87146
Si -4.7514 40.1014 5.88422
Si -4.41858 36.8832 6.06018
O -1.79429 38.7046 5.47405
Si -1.60066 40.3327 5.62801
Si -1.44978 37.0994 5.46941
O -0.684662 40.7698 6.93338
O -3.21392 40.749 5.76854
O -0.811119 40.8105 4.25437
O -0.436694 36.7237 6.67318
O -2.89027 36.4336 5.77875
O -0.922067 36.6604 4.00187
O -8.91559 37.7462 8.07899
Si -9.53885 39.2601 8.25938
Si -8.81339 36.1079 8.09108
O -6.44792 38.2357 8.74303
Si -6.44592 39.8742 8.57867
Si -5.90971 36.6851 8.75379
O -5.72734 40.4403 9.95794
O -8.09634 40.0905 8.41895
O -5.5783 40.4169 7.27954
O -5.34665 36.3157 10.2276
O -7.25279 35.8484 8.42277
O -4.84865 36.4415 7.55685
O -13.4099 36.3963 5.7663
Si -14.2003 37.8394 5.78746
Si -13.1076 34.7926 5.95098
O -10.9677 37.1938 5.62695
Si -11.1925 38.8233 5.58913
Si -10.2674 35.7223 5.42037
O -10.4256 39.5132 6.88426
O -12.8617 38.8371 5.68832
O -10.5442 39.4276 4.19473
O -9.19758 35.541 6.62244
O -11.5135 34.7256 5.68512
O -9.70086 35.4825 3.92337
O -17.6924 34.5512 8.22352
Si -18.6585 35.8833 8.21994
Si -17.2048 32.9936 8.04055
O -15.3989 35.6227 8.63916
Si -15.7927 37.2141 8.48202
Si -14.5079 34.2438 8.64486
O -15.2223 37.9394 9.85613
O -17.4492 37.0331 8.3388
O -15.0879 37.946 7.17723
O -13.8637 34.0184 10.1141
O -15.6179 33.1119 8.32948
O -13.4254 34.2528 7.44312
O -21.702 32.2058 5.98405
Si -22.8356 33.3913 5.83812
Si -21.0311 30.7081 6.01828
O -19.5837 33.5347 5.36933
Si -20.1632 35.0682 5.52631
Si -18.526 32.2794 5.34798
O -19.5456 35.885 6.82549
O -21.7835 34.6829 5.683
O -19.6908 35.851 4.14659
O -17.4458 32.4298 6.54272
O -19.4804 31.0189 5.68392
O -17.8762 32.1352 3.87103
O -25.3993 29.3444 8.09153
Si -26.6662 30.3853 8.24597
Si -24.5426 27.944 8.07918
O -23.4448 30.9404 8.52231
Si -24.2238 32.3899 8.51288
Si -22.248 29.829 8.69408
O -23.8408 33.1921 9.90646
O -25.7846 31.7997 8.39045
O -23.7435 33.3038 7.21905
O -21.6336 29.7981 10.1911
O -23.0418 28.4513 8.39893
O -21.1836 30.0663 7.4977
O -28.7315 26.0278 5.73774
Si -30.1065 26.9307 5.77571
Si -27.7048 24.763 5.94923
O -26.9607 27.8826 5.58784
Si -27.9198 29.2194 5.57306
Si -25.6422 26.9204 5.40549
O -27.5658 30.184 6.87105
O -29.398 28.4427 5.67511
O -27.6323 30.0661 4.18308
O -24.6166 27.2717 6.60738
O -26.2685 25.4547 5.67817
O -25.0214 26.9709 3.91197
O -31.6173 22.3906 7.9428
Si -33.0937 23.0924 8.14461
Si -30.4398 21.2476 7.96329
O -30.1138 24.4125 8.65853
Si -31.2132 25.6245 8.47277
Si -28.6772 23.619 8.6457
O -31.06 26.5346 9.84788
O -32.5813 24.6758 8.3115
O -30.9305 26.6045 7.17054
O -28.0046 23.7177 10.1164
O -29.1104 22.1003 8.30404
O -27.7308 24.1566 7.44933
O -34.0463 18.3213 5.93433
Si -35.5751 18.8968 5.71611
Si -32.7121 17.3717 5.80552
O -32.7579 20.6039 5.52291
Si -34.022 21.6543 5.47658
Si -31.2548 19.9854 5.29413
O -33.9208 22.6853 6.76862
O -35.2578 20.5326 5.58612
O -33.9493 22.5317 4.07792
O -30.3387 20.5678 6.49576
O -31.5011 18.408 5.54714
O -30.6833 20.1889 3.79409
O -36.0183 13.9892 8.2148
Si -37.5889 14.4446 8.38424
Si -34.5856 13.2304 8.47052
O -34.9179 16.5407 8.20801
Si -36.331 17.3634 8.3805
Si -33.3818 16.0209 8.46188
O -36.3396 18.2749 9.75708
O -37.4328 16.1078 8.38434
O -36.3853 18.3759 7.06711
O -32.7851 16.3395 9.93108
O -33.4954 14.4146 8.33233
O -32.5245 16.6161 7.2257
O -37.484 9.62572 5.52443
Si -39.1165 9.8159 5.47756
Si -36.0004 8.96429 5.28925
O -36.7146 12.1271 5.9397
Si -38.1837 12.8408 5.71994
Si -35.1064 11.8167 5.81399
O -38.3619 13.7863 7.07185
O -39.1528 11.4849 5.5881
O -38.2561 13.8256 4.39502
O -34.4325 12.1945 7.23736
O -35.0247 10.2266 5.54753
O -34.4076 12.586 4.5764
O -38.4143 5.08919 8.67027
Si -40.0497 5.04033 8.48189
Si -36.8482 4.59926 8.6619
O -37.9924 7.56646 7.93704
Si -39.5186 8.15003 8.14532
Si -36.3527 7.50567 7.95818
O -39.7006 9.15823 9.44492
O -40.3093 6.68525 8.31632
O -39.7942 9.03043 6.76904
O -35.7571 8.41808 9.15281
O -36.0496 5.95862 8.31004
O -35.7926 7.89608 6.48852
O -38.7265 0.419707 5.55838
Si -40.3531 0.171087 5.57133
Si -37.1177 0.130987 5.40014
O -38.6215 2.9673 5.75213
Si -40.2251 3.33474 5.78505
Si -36.9988 3.10776 5.96572
O -40.5602 4.15445 7.18094
O -40.8216 1.77441 5.68031
O -40.5987 4.29948 4.49124
O -36.5841 3.5396 7.46895
O -36.4974 1.59649 5.68512
O -36.4558 4.05354 4.76905
O -38.47 -4.2494 8.49179
Si -40.0542 -4.69442 8.50164
Si -36.841 -4.32905 8.68589
O -38.6876 -1.73356 8.11672
Si -40.3179 -1.54301 8.24733
Si -37.0874 -1.36929 8.07687
O -40.7663 -0.627994 9.55094
O -40.7182 -3.16238 8.38513
O -40.7924 -0.756213 6.87053
O -36.7151 -0.349102 9.27515
O -36.4051 -2.79967 8.39358
O -36.6659 -0.85608 6.60002
O -37.6324 -8.83198 5.28645
Si -39.1351 -9.47306 5.49819
Si -35.9968 -8.69781 5.31939
O -38.1656 -6.37446 5.99853
Si -39.8035 -6.3899 5.82925
Si -36.6237 -5.8132 6.01236
O -40.3791 -5.67657 7.20841
O -39.9899 -8.04498 5.66668
O -40.3571 -5.52751 4.53012
O -36.2639 -5.25606 7.49046
O -35.7643 -7.13698 5.66563
O -36.4011 -4.74266 4.82035
O -36.1722 -13.3399 8.64601
Si -37.6146 -14.1064 8.4282
Si -34.5782 -12.9646 8.51738
O -37.0422 -10.8567 8.25841
Si -38.6641 -11.1196 8.19828
Si -35.5836 -10.1429 8.01851
O -39.3757 -10.3662 9.49054
O -38.6348 -12.7886 8.30195
O -39.2743 -10.4858 6.79917
O -35.4133 -9.07117 9.22103
O -34.5602 -11.3697 8.2648
O -35.3638 -9.58039 6.51738
O -34.2166 -17.6812 5.55655
Si -35.5982 -18.5564 5.72671
Si -32.6992 -17.1071 5.80643
O -35.4084 -15.1713 5.55512
Si -36.9608 -15.6856 5.72553
Si -34.0036 -14.3605 5.80689
O -37.6525 -15.0898 7.10122
O -36.7447 -17.3418 5.72922
O -37.7571 -15.0595 4.4117
O -33.85 -13.6975 7.27431
O -32.8707 -15.5055 5.67796
O -33.8853 -13.3248 4.56942
O -31.916 -21.673 8.24828
Si -33.1435 -22.7659 8.19811
Si -30.4363 -21.0012 8.01745
O -33.2822 -19.4309 8.64461
Si -34.7893 -20.0619 8.42927
Si -31.9818 -18.4353 8.51673
O -35.6169 -19.5694 9.7801
O -34.4165 -21.6862 8.30333
O -35.5752 -19.4684 7.10275
O -31.8227 -17.6701 9.93536
O -30.7363 -19.4321 8.26566
O -32.0864 -17.4084 7.2729
O -29.1479 -25.3891 6.00912
Si -30.2028 -26.6406 5.82717
Si -27.7388 -24.548 6.00232
O -30.7169 -23.4191 5.29554
Si -32.1674 -24.1726 5.49907
Si -29.5791 -22.2365 5.31925
O -33.0403 -23.6415 6.80027
O -31.6022 -25.7381 5.66528
O -33.0092 -23.7923 4.12404
O -29.8579 -21.1872 6.51772
O -28.2221 -23.0447 5.65968
O -29.5009 -21.5508 3.85294
O -25.8807 -28.7414 8.27351
Si -26.7838 -30.117 8.28286
Si -24.5917 -27.737 8.1111
O -27.7067 -26.9601 8.46671
Si -29.051 -27.9084 8.49767
Si -26.7274 -25.6575 8.67347
O -29.8862 -27.6117 9.89278
O -28.2893 -29.3945 8.39282
O -30.0176 -27.5431 7.2034
O -26.7731 -25.0538 10.1743
O -25.2679 -26.2958 8.39506
O -27.0678 -24.623 7.47519
O -22.2583 -31.6635 5.96679
Si -22.9701 -33.1449 5.87216
Si -21.0914 -30.5115 6.04867
O -24.2547 -30.1516 5.45643
Si -25.4867 -31.236 5.59143
Si -23.4545 -28.7186 5.42013
O -26.4675 -30.9558 6.89392
O -24.5521 -32.6166 5.73477
O -26.3881 -31.0651 4.2139
O -23.9659 -27.7603 6.61863
O -21.9343 -29.1673 5.73763
O -23.5549 -28.0602 3.94393
O -18.2797 -34.1142 8.22905
Si -18.8061 -35.6724 8.29655
Si -17.2657 -32.8269 8.12211
O -20.4525 -32.8602 8.60892
Si -21.5429 -34.0922 8.55322
Si -19.8392 -31.3417 8.72965
O -22.4411 -34.0218 9.93975
O -20.4422 -35.3462 8.42605
O -22.5601 -33.9542 7.25526
O -20.0258 -30.7341 10.2186
O -18.2712 -31.5975 8.42676
O -20.4472 -30.4389 7.53232
O -14.0283 -36.0606 6.05048
Si -14.365 -37.6652 5.89452
Si -13.1851 -34.6518 6.0607
O -16.3413 -35.0814 5.53088
Si -17.2735 -36.4358 5.61223
Si -15.9202 -33.4974 5.43766
O -18.2983 -36.4182 6.91085
O -16.0267 -37.5432 5.74772
O -18.1769 -36.4826 4.2278
O -16.6403 -32.682 6.63566
O -14.3334 -33.5588 5.74381
O -16.1806 -32.9064 3.95295
O -9.55615 -37.4731 8.36164
Si -9.71192 -39.1113 8.35835
Si -8.89483 -35.9788 8.1968
O -12.0097 -36.7653 8.55137
Si -12.7515 -38.2343 8.56722
Si -11.7654 -35.1514 8.73398
O -13.6329 -38.3729 9.95818
O -11.3794 -39.185 8.46317
O -13.771 -38.3683 7.27015
O -12.1019 -34.6233 10.2265
O -10.1749 -35.027 8.46586
O -12.5508 -34.4052 7.53089
O -4.96992 -38.3606 5.92134
Si -4.92734 -40.0057 5.92071
Si -4.48952 -36.7995 6.09458
O -7.46711 -37.9541 5.5282
Si -8.04427 -39.4902 5.66577
Si -7.42643 -36.313 5.50514
O -9.03853 -39.7029 6.97001
O -6.57381 -40.2746 5.80349
O -8.92169 -39.7648 4.29018
O -8.32113 -35.7054 6.70815
O -5.86922 -36.0033 5.8118
O -7.8337 -35.7698 4.03431
O -0.320598 -38.6992 8.12344
Si -0.0762397 -40.3183 8.30112
Si -0.0312486 -37.0832 8.13692
O -2.83489 -38.5915 8.76256
Si -3.22701 -40.1838 8.61345
Si -2.99259 -36.9579 8.7866
O -4.05822 -40.5614 9.99352
O -1.67416 -40.7843 8.45816
O -4.19675 -40.5103 7.31428
O -3.4538 -36.4702 10.2612
O -1.48778 -36.4623 8.46345
O -3.96216 -36.4657 7.58826
O 4.37511 -38.4572 5.7808
Si 4.78858 -40.0492 5.82385
Si 4.45641 -36.8301 5.99059
O 1.80201 -38.6509 5.67071
Si 1.63301 -40.287 5.63077