2688
 Atoms. Timestep: 62672
O 18.0885 4.66943 11.4883
Si 19.699 4.95049 11.3164
Si 16.4782 4.76944 11.1898
O 18.1441 1.91768 11.7335
Si 19.7764 1.76255 11.504
Si 16.5048 1.77264 11.6231
O 20.2468 0.919538 12.8604
O 20.2481 3.36642 11.3783
O 20.177 0.851086 10.1787
O 15.9739 1.23197 13.0501
O 15.9439 3.267 11.4181
O 16.0523 0.857258 10.3711
O 17.5466 9.43429 8.79219
Si 19.1493 9.8324 8.76402
Si 16.1063 9.01237 9.55842
O 17.9298 6.67131 8.32904
Si 19.5562 6.6621 8.58291
Si 16.3608 6.20713 8.47228
O 20.0248 5.79301 9.92155
O 19.8544 8.31172 8.67342
O 20.1168 5.87953 50.4529
O 16.1501 5.12164 9.64693
O 15.6638 7.52943 9.08223
O 15.9192 5.70895 50.2164
O 15.4712 13.0245 10.4183
Si 16.8316 13.923 10.6685
Si 14.5418 11.6813 10.2841
O 17.4757 11.1812 12.2071
Si 18.8798 11.555 11.4478
Si 16.2688 10.128 12.2052
O 19.476 10.8648 12.8828
O 18.2232 13.0292 10.9412
O 19.4415 10.6542 10.1754
O 15.6109 9.78233 13.6077
O 15.4353 10.3692 10.6498
O 16.6733 8.88537 11.153
O 12.3308 15.5275 8.53188
Si 13.0846 16.9691 8.28107
Si 11.1639 14.3794 8.44118
O 14.3904 13.9357 7.6276
Si 15.5916 15.0409 7.94229
Si 13.4558 12.5729 7.59277
O 16.6068 14.7369 9.22748
O 14.657 16.4165 8.12919
O 16.4857 14.9035 49.7802
O 13.9208 11.6098 8.80096
O 11.9663 13.0512 7.99463
O 13.5182 11.8892 49.3505
O 8.28034 18.0327 11.0146
Si 8.93726 19.5309 10.834
Si 7.32703 16.7185 10.7573
O 10.62 16.6605 10.8361
Si 11.6736 17.9166 10.9584
Si 9.93226 15.1984 11.1246
O 12.5461 17.8133 12.3627
O 10.5691 19.1708 10.8814
O 12.6941 17.819 9.65309
O 10.1202 14.6757 12.6455
O 8.35123 15.482 10.9431
O 10.4707 14.2662 9.90733
O 4.00254 20.2166 8.23948
Si 4.59657 21.7591 8.24547
Si 3.48641 18.7866 8.96707
O 6.54073 18.9649 7.87951
Si 7.43928 20.3267 8.10154
Si 6.02849 17.4108 8.04041
O 8.40895 20.2675 9.44612
O 6.24457 21.4938 8.16293
O 8.39908 20.3782 49.9765
O 6.77364 16.6237 9.23946
O 4.50375 17.5893 8.55411
O 6.2495 16.739 49.8006
O -0.116016 20.7188 9.82263
Si -0.0206239 22.3488 10.0652
Si 0.367125 19.1539 9.69715
O 2.51605 21.1577 11.6452
Si 3.06096 22.5291 10.9321
Si 2.65333 19.56 11.6198
O 3.94485 22.6303 12.3731
O 1.51747 22.9174 10.3842
O 4.12306 22.458 9.66819
O 2.57563 18.8061 13.0152
O 1.95907 19.05 10.0575
O 3.88688 19.1619 10.5665
O -4.09462 19.8612 7.86544
Si -4.71917 21.3672 7.63359
Si -3.92647 18.2323 7.76537
O -1.51613 20.448 50.2788
Si -1.64663 22.0796 50.5643
Si -1.03687 18.8656 50.236
O -0.779963 22.6872 8.62074
O -3.29823 22.2307 7.50683
O -1.00914 22.6862 49.1669
O 0.00392065 18.6143 8.2217
O -2.36775 18.0193 7.38016
O -0.43856 18.4918 48.7714
O -8.55197 18.4807 10.3606
Si -9.34235 19.9093 10.2045
Si -8.25176 16.885 10.1595
O -6.04248 19.2967 10.191
Si -6.33953 20.9111 10.3095
Si -5.36957 17.8193 10.4509
O -5.70223 21.5123 11.7128
O -8.00655 20.9108 10.222
O -5.61284 21.6239 9.00379
O -4.77968 17.6052 11.9448
O -6.64243 16.8229 10.3364
O -4.3348 17.6079 9.21276
O -12.3897 17.1186 49.8129
Si -13.7261 17.9613 50.2373
Si -11.7425 14.4307 8.8786
O -10.6093 17.6315 7.47772
Si -10.9108 19.2622 7.47988
Si -9.65198 16.2934 7.45735
O -10.3113 19.9641 8.85913
O -12.5664 19.134 50.5444
O -10.2651 20.0237 49.3909
O -8.533 16.4435 8.62345
O -10.4407 14.9634 7.98882
O -9.02382 16.1014 49.1867
O -14.4474 12.9604 9.94959
Si -15.9628 13.5689 9.75786
Si -13.1858 11.9194 9.80838
O -12.9804 15.5292 9.96858
Si -14.4267 16.3656 9.70148
Si -12.0191 15.6355 11.5193
O -14.4776 17.4544 10.9898
O -15.6235 15.2031 9.70511
O -14.4636 17.3145 8.34037
O -12.3218 14.6839 12.7721
O -11.991 12.8813 9.291
O -11.0889 14.9902 10.3186
O -16.5861 8.75133 50.2338
Si -18.1595 9.22229 50.1454
Si -15.207 7.90513 49.9509
O -15.412 11.1784 50.0684
Si -16.7755 12.0791 50.2537
Si -13.888 10.6196 50.3183
O -16.7373 12.9902 8.41088
O -17.9362 10.8773 50.2239
O -16.7915 13.0756 48.9292
O -13.385 10.8466 8.61436
O -14.0504 9.02312 50.1187
O -13.0041 11.2429 49.1012
O -18.2211 4.47443 10.1764
Si -19.8438 4.67817 9.98749
Si -16.7497 3.75114 10.1316
O -17.3886 6.87761 9.33418
Si -18.8145 7.65924 9.60327
Si -15.7847 6.5355 9.40633
O -18.8271 8.67267 10.9127
O -19.8273 6.34268 9.8049
O -18.9585 8.57142 8.22152
O -15.0629 7.3143 10.6268
O -15.7451 4.95897 9.75554
O -15.1307 6.84647 7.95255
O -19.272 -0.132397 50.2103
Si -20.9228 -0.0779501 50.3732
Si -17.6925 -0.592646 50.0314
O -18.7531 2.44162 50.4176
Si -20.2835 3.03582 50.5023
Si -17.131 2.3272 7.41515
O -20.4783 3.90368 8.67004
O -21.115 1.58265 50.4719
O -20.5095 4.02744 49.1875
O -16.6693 2.66754 8.93059
O -16.8674 0.763441 50.3303
O -16.4433 3.16734 49.4369
O -19.8407 -4.2073 11.4768
Si -21.1692 -4.83809 10.7527
Si -18.2377 -4.25322 11.4596
O -19.548 -1.61063 9.49405
Si -21.1499 -1.73809 9.87173
Si -17.9533 -1.98301 9.4864
O -21.4885 -0.755429 11.155
O -21.6364 -3.30834 10.2017
O -21.5218 -0.945015 8.44151
O -17.3371 -1.14556 10.7293
O -17.7667 -3.55314 9.88417
O -17.3878 -1.60984 8.02308
O -17.348 -8.05096 7.81919
Si -18.6224 -9.07487 8.0104
Si -15.8229 -7.44413 7.91512
O -18.7937 -5.66108 8.06734
Si -20.2951 -6.34848 8.07213
Si -17.4176 -5.04501 8.81324
O -21.0349 -5.89187 9.4828
O -19.8907 -7.97659 8.03885
O -21.1967 -5.75803 50.0068
O -17.7771 -5.47851 10.4136
O -16.128 -5.94464 8.42985
O -17.4949 -4.13504 7.45658
O -14.6823 -11.8296 11.2982
Si -15.7778 -13.0375 11.0649
Si -13.2536 -11.0237 11.2672
O -16.2169 -9.75651 10.8508
Si -17.6806 -10.502 10.7433
Si -15.0222 -8.65071 10.6284
O -18.5718 -10.0254 12.0565
O -17.1461 -12.0877 10.8647
O -18.4691 -10.0491 9.351
O -15.1862 -7.57209 11.8312
O -13.6885 -9.50662 10.935
O -14.9615 -8.12218 9.10159
O -11.4726 -15.2577 8.28977
Si -12.4277 -16.5961 8.23398
Si -10.194 -14.2593 8.03102
O -13.306 -13.4004 8.29952
Si -14.6619 -14.33 8.35315
Si -12.2904 -12.1343 8.54912
O -15.483 -14.006 9.75337
O -13.9193 -15.8324 8.29449
O -15.6146 -13.9525 50.2688
O -12.3169 -11.5463 10.0571
O -10.8443 -12.8043 8.29047
O -12.579 -11.1018 50.5618
O -7.9651 -18.1726 11.2494
Si -8.64622 -19.6637 11.2755
Si -6.78615 -17.0525 11.4233
O -9.93214 -16.6516 10.6813
Si -11.1531 -17.7327 10.9254
Si -9.09765 -15.2373 10.7152
O -12.1189 -17.4184 12.2344
O -10.2284 -19.1171 11.1366
O -12.0645 -17.5574 9.54278
O -9.61105 -14.2937 11.9243
O -7.59117 -15.7008 11.0606
O -9.16346 -14.5623 9.24298
O -4.06004 -20.8119 9.30183
Si -4.55039 -22.3172 8.84312
Si -3.02219 -19.9439 10.2655
O -6.03943 -19.4004 8.60952
Si -7.18813 -20.5903 8.5922
Si -5.53156 -17.8403 8.7205
O -8.1413 -20.5027 9.94289
O -6.16011 -21.9089 8.65604
O -8.17268 -20.4649 50.4787
O -5.69017 -17.3096 10.2509
O -4.01092 -17.6862 8.16636
O -6.31247 -17.0024 7.56991
O 0.292284 -21.3091 11.6373
Si 0.212183 -22.9553 11.6001
Si -0.174983 -19.735 11.6304
O -2.54242 -21.307 11.0945
Si -2.95217 -22.8405 11.4978
Si -2.81058 -18.5663 12.8922
O -3.83322 -22.96 12.8958
O -1.38683 -23.4163 11.5687
O -3.93802 -23.1002 10.1807
O -2.37479 -19.2652 14.314
O -1.78638 -19.4411 11.6097
O -3.74346 -19.0551 11.5294
O 4.73177 -20.4722 9.16259
Si 4.97516 -22.077 8.91539
Si 4.24114 -18.9276 8.93882
O 1.31206 -21.1594 8.89611
Si 1.82502 -22.7277 8.89829
Si 1.22306 -19.5187 8.92886
O 1.09331 -23.343 10.2523
O 3.48803 -22.8296 8.88407
O 1.0729 -23.3513 7.55739
O 0.409925 -19.1088 10.2619
O 2.64289 -18.7703 9.02657
O 0.463739 -19.0913 7.56643
O 8.89521 -19.2591 11.9361
Si 9.64132 -20.6923 11.6707
Si 8.54332 -17.6883 11.6768
O 6.17021 -20.0849 11.3955
Si 6.60062 -21.6676 11.5953
Si 5.6367 -18.5415 11.6219
O 5.8952 -22.294 12.9577
O 8.27455 -21.6605 11.6082
O 5.90796 -22.3784 10.2606
O 4.68568 -18.3393 12.9075
O 6.9405 -17.6201 11.8349
O 4.89233 -18.1846 10.2257
O 12.6636 -17.8089 8.12713
Si 14.0228 -18.6109 8.55108
Si 11.9075 -15.1744 10.413
O 10.8952 -18.3949 8.93943
Si 11.225 -20.0201 8.94476
Si 9.90232 -17.0851 8.96446
O 10.6244 -20.7166 10.3303
O 12.8849 -19.827 8.81435
O 10.5775 -20.8036 7.63362
O 8.79496 -17.2917 10.1263
O 10.6338 -15.7378 9.51574
O 9.28329 -16.8777 7.47198
O 14.5012 -13.5634 11.5664
Si 16.0516 -14.07 11.3522
Si 13.1758 -12.6103 11.3968
O 13.2008 -16.1972 11.5043
Si 14.6811 -16.9686 11.2418
Si 12.2578 -16.3394 13.0542
O 14.7629 -18.0578 12.5346
O 15.8086 -15.7284 11.2712
O 14.7382 -17.9301 9.8835
O 12.5105 -15.3812 14.3108
O 12.0501 -13.6227 10.8432
O 11.2844 -15.7571 11.8569
O 16.2933 -8.97056 8.88642
Si 17.8485 -9.49282 8.68926
Si 14.7547 -8.42208 8.66614
O 15.3003 -11.766 8.36784
Si 16.746 -12.4983 8.62339
Si 13.7648 -11.288 8.67144
O 16.7678 -13.4258 9.99933
O 17.7602 -11.1644 8.66154
O 16.852 -13.4939 50.5176
O 13.3266 -11.5271 10.2097
O 13.782 -9.68946 8.48308
O 12.9204 -11.9635 7.46048
O 17.5214 -4.18445 11.5179
Si 19.0676 -4.74786 11.4435
Si 15.8856 -4.07217 11.45
O 16.705 -7.66276 11.1701
Si 18.3188 -7.88684 11.3761
Si 15.1941 -7.06315 11.351
O 18.5142 -8.81485 12.7351
O 19.1065 -6.41599 11.4196
O 18.5861 -8.8262 10.0256
O 14.5732 -7.47182 12.7811
O 15.118 -5.46421 11.2288
O 14.425 -7.67063 10.0619
O 18.0985 0.457366 8.68357
Si 19.691 0.0888412 8.78973
Si 16.4836 0.347455 8.90098
O 17.6992 -3.16568 8.69906
Si 19.3446 -3.12481 8.74105
Si 16.1282 -2.69795 8.74493
O 19.697 -4.01743 10.0941
O 19.9322 -1.56253 8.75637
O 19.7132 -4.02346 7.39114
O 15.5239 -3.16952 10.1631
O 15.8947 -1.11712 8.60618
O 15.4589 -3.40717 7.4558
O 18.0885 4.66943 16.8916
Si 19.699 4.95049 16.7197
Si 16.4782 4.76945 16.5931
O 18.1441 1.91768 17.1368
Si 19.7764 1.76255 16.9073
Si 16.5048 1.77265 17.0263
O 20.2468 0.919538 18.2636
O 20.2481 3.36642 16.7816
O 20.177 0.851092 15.5819
O 15.9739 1.23198 18.4534
O 15.9439 3.26701 16.8214
O 16.0522 0.857287 15.7744
O 17.5466 9.43428 14.1955
Si 19.1493 9.83238 14.1673
Si 16.1063 9.01237 14.9617
O 17.9298 6.67129 13.7323
Si 19.5562 6.66208 13.9862
Si 16.3608 6.20713 13.8755
O 20.0248 5.79299 15.3248
O 19.8544 8.3117 14.0767
O 20.1168 5.87951 12.63
O 16.1501 5.12164 15.0502
O 15.6638 7.52942 14.4855
O 15.9192 5.70893 12.3935
O 15.4711 13.0245 15.8216
Si 16.8316 13.923 16.0718
Si 14.5417 11.6813 15.6873
O 17.4757 11.1812 17.6104
Si 18.8798 11.555 16.851
Si 16.2688 10.1281 17.6084
O 19.4759 10.8648 18.286
O 18.2232 13.0292 16.3444
O 19.4415 10.6542 15.5787
O 15.6109 9.78236 19.0109
O 15.4353 10.3692 16.0531
O 16.6733 8.88539 16.5563
O 12.3307 15.5275 13.9351
Si 13.0846 16.9692 13.6843
Si 11.1639 14.3794 13.8444
O 14.3904 13.9357 13.0308
Si 15.5916 15.0409 13.3455
Si 13.4558 12.5729 12.996
O 16.6068 14.7369 14.6307
O 14.6569 16.4165 13.5324
O 16.4858 14.9035 11.9574
O 13.9208 11.6098 14.2042
O 11.9663 13.0512 13.3979
O 13.5183 11.8892 11.5276
O 8.28031 18.0327 16.418
Si 8.93724 19.5308 16.2372
Si 7.32701 16.7185 16.1606
O 10.6201 16.6605 16.2393
Si 11.6736 17.9166 16.3617
Si 9.93227 15.1984 16.5279
O 12.5461 17.8133 17.7659
O 10.5691 19.1708 16.2847
O 12.694 17.819 15.0563
O 10.1202 14.6757 18.0488
O 8.35123 15.482 16.3464
O 10.4706 14.2663 15.3106
O 4.00272 20.2166 13.6427
Si 4.59667 21.7591 13.6487
Si 3.48661 18.7866 14.3703
O 6.54091 18.9648 13.2827
Si 7.43935 20.3267 13.5048
Si 6.02865 17.4107 13.4436
O 8.40899 20.2674 14.8494
O 6.24467 21.4938 13.5661
O 8.39915 20.3781 12.1535
O 6.77371 16.6237 14.6428
O 4.50391 17.5893 13.9573
O 6.24959 16.7389 11.9777
O -0.115772 20.719 15.2263
Si -0.0204662 22.349 15.4687
Si 0.367448 19.1541 15.1006
O 2.51647 21.1576 17.0486
Si 3.06114 22.5291 16.3354
Si 2.65379 19.56 17.023
O 3.94496 22.6302 17.7764
O 1.51763 22.9175 15.7877
O 4.12318 22.4581 15.0714
O 2.57582 18.806 18.4184
O 1.9594 19.0501 15.4609
O 3.88725 19.1618 15.9697
O -4.09446 19.8613 13.2688
Si -4.71896 21.3674 13.037
Si -3.92627 18.2323 13.1688
O -1.51619 20.448 12.4563
Si -1.64644 22.0797 12.7416
Si -1.0367 18.8657 12.4133
O -0.779666 22.6874 14.0241
O -3.29803 22.2308 12.9103
O -1.00909 22.6861 11.344
O 0.00433157 18.6147 13.625
O -2.36746 18.0194 12.784
O -0.43872 18.4919 10.9487
O -8.55193 18.4809 15.7634
Si -9.34251 19.9095 15.6076
Si -8.25193 16.8852 15.5626
O -6.0427 19.297 15.5939
Si -6.33973 20.9114 15.7127
Si -5.36983 17.8196 15.8542
O -5.70255 21.5124 17.1161
O -8.00674 20.9111 15.625
O -5.61281 21.6242 14.4071
O -4.78029 17.6057 17.3482
O -6.6426 16.8231 15.7396
O -4.33485 17.6081 14.6162
O -12.39 17.1187 11.9902
Si -13.7264 17.9613 12.4145
Si -11.7426 14.4304 14.2818
O -10.6095 17.6314 12.8809
Si -10.911 19.2621 12.8831
Si -9.65215 16.2932 12.8607
O -10.3116 19.964 14.2623
O -12.5666 19.134 12.7215
O -10.2652 20.0236 11.5681
O -8.53319 16.4434 14.0268
O -10.4409 14.9631 13.3919
O -9.02379 16.1012 11.364
O -14.4476 12.9599 15.3534
Si -15.9628 13.5688 15.1612
Si -13.1859 11.919 15.2117
O -12.9804 15.529 15.3718
Si -14.4267 16.3655 15.1048
Si -12.0189 15.6354 16.9225
O -14.4774 17.4543 16.393
O -15.6234 15.2029 15.1085
O -14.4638 17.3144 13.7437
O -12.3216 14.6838 18.1753
O -11.9912 12.8809 14.6942
O -11.0889 14.9899 15.7218
O -16.5861 8.75119 12.4111
Si -18.1594 9.22248 12.3225
Si -15.2068 7.90535 12.1279
O -15.4121 11.1786 12.2451
Si -16.7755 12.0793 12.4307
Si -13.8881 10.6199 12.4951
O -16.7372 12.9902 13.8141
O -17.9361 10.8775 12.4008
O -16.7914 13.0759 11.1063
O -13.3853 10.8465 14.0175
O -14.0503 9.02349 12.2952
O -13.0041 11.2436 11.2783
O -18.221 4.47468 15.5795
Si -19.8437 4.67825 15.3907
Si -16.7497 3.75135 15.5348
O -17.3883 6.87816 14.7367
Si -18.8144 7.65931 15.0063
Si -15.7845 6.53568 14.8094
O -18.8272 8.67253 16.3159
O -19.8272 6.34275 15.2079
O -18.9584 8.57174 13.6247
O -15.0629 7.31422 16.0302
O -15.7451 4.95911 15.1585
O -15.1302 6.84687 13.3558
O -19.272 -0.132492 12.3873
Si -20.9228 -0.0780556 12.5503
Si -17.6925 -0.592764 12.2086
O -18.7531 2.44158 12.5946
Si -20.2835 3.0357 12.6795
Si -17.131 2.32705 12.8185
O -20.4782 3.90359 14.0733
O -21.115 1.58254 12.6491
O -20.5095 4.02729 11.3646
O -16.6693 2.66755 14.3339
O -16.8675 0.763272 12.5077
O -16.4432 3.16704 11.614
O -19.8408 -4.20741 16.8801
Si -21.1693 -4.83814 16.156
Si -18.2377 -4.25332 16.8629
O -19.5481 -1.6106 14.8975
Si -21.15 -1.73811 15.2751
Si -17.9534 -1.98306 14.8898
O -21.4885 -0.755371 16.5583
O -21.6364 -3.30835 15.605
O -21.5218 -0.945128 13.8448
O -17.3371 -1.14552 16.1326
O -17.7668 -3.55319 15.2875
O -17.3879 -1.60999 13.4264
O -17.3481 -8.05095 13.2224
Si -18.6224 -9.07486 13.4137
Si -15.8229 -7.44411 13.3184
O -18.7937 -5.66106 13.4706
Si -20.2951 -6.34848 13.4754
Si -17.4177 -5.045 14.2165
O -21.035 -5.89187 14.886
O -19.8907 -7.97658 13.4421
O -21.1967 -5.758 12.1838
O -17.7771 -5.47858 15.8169
O -16.128 -5.94462 13.8331
O -17.4949 -4.135 12.8599
O -14.6823 -11.8296 16.7014
Si -15.7778 -13.0375 16.4681
Si -13.2536 -11.0237 16.6704
O -16.2169 -9.75653 16.254
Si -17.6806 -10.502 16.1465
Si -15.0222 -8.65072 16.0317
O -18.5718 -10.0255 17.4598
O -17.1461 -12.0877 16.2679
O -18.4691 -10.0491 14.7543
O -15.1862 -7.57212 17.2344
O -13.6885 -9.50664 16.3382
O -14.9614 -8.12214 14.5048
O -11.4725 -15.2578 13.693
Si -12.4277 -16.5961 13.6372
Si -10.194 -14.2593 13.4343
O -13.306 -13.4004 13.7027
Si -14.6619 -14.33 13.7564
Si -12.2904 -12.1343 13.9524
O -15.483 -14.0061 15.1566
O -13.9193 -15.8324 13.6977
O -15.6147 -13.9525 12.4459
O -12.3169 -11.5464 15.4603
O -10.8443 -12.8043 13.6937
O -12.579 -11.1018 12.7389
O -7.9651 -18.1725 16.6527
Si -8.64623 -19.6637 16.6788
Si -6.78616 -17.0525 16.8266
O -9.93216 -16.6515 16.0845
Si -11.1531 -17.7327 16.3287
Si -9.09765 -15.2373 16.1185
O -12.1189 -17.4184 17.6377
O -10.2284 -19.1171 16.5399
O -12.0645 -17.5574 14.946
O -9.61106 -14.2937 17.3276
O -7.59118 -15.7008 16.4639
O -9.16346 -14.5623 14.6463
O -4.06004 -20.8119 14.7051
Si -4.5504 -22.3172 14.2464
Si -3.02219 -19.9439 15.6688
O -6.03943 -19.4004 14.0128
Si -7.18813 -20.5903 13.9955
Si -5.53156 -17.8403 14.1238
O -8.14131 -20.5027 15.3462
O -6.16012 -21.9089 14.0593
O -8.17266 -20.4649 12.6558
O -5.69018 -17.3096 15.6541
O -4.01091 -17.6862 13.5697
O -6.31244 -17.0024 12.9732
O 0.292276 -21.3091 17.0406
Si 0.212179 -22.9553 17.0034
Si -0.174991 -19.735 17.0337
O -2.54242 -21.307 16.4978
Si -2.95218 -22.8405 16.9011
Si -2.81059 -18.5663 18.2955
O -3.83323 -22.96 18.2991
O -1.38683 -23.4163 16.972
O -3.93803 -23.1002 15.584
O -2.37479 -19.2652 19.7173
O -1.78638 -19.4411 17.0129
O -3.74346 -19.0551 16.9327
O 4.73177 -20.4722 14.5659
Si 4.97516 -22.077 14.3187
Si 4.24113 -18.9276 14.3421
O 1.31206 -21.1594 14.2994
Si 1.82501 -22.7277 14.3016
Si 1.22305 -19.5187 14.3321
O 1.0933 -23.343 15.6555
O 3.48803 -22.8296 14.2873
O 1.07289 -23.3513 12.9607
O 0.409919 -19.1088 15.6652
O 2.64288 -18.7703 14.4298
O 0.463731 -19.0913 12.9697
O 8.89521 -19.2591 17.3394
Si 9.64132 -20.6923 17.0739
Si 8.54332 -17.6883 17.0801
O 6.17021 -20.0849 16.7988
Si 6.60063 -21.6676 16.9985
Si 5.63671 -18.5415 17.0251
O 5.89521 -22.294 18.3609
O 8.27455 -21.6605 17.0114
O 5.90796 -22.3784 15.6638
O 4.68569 -18.3393 18.3108
O 6.9405 -17.6201 17.2382
O 4.89233 -18.1846 15.6289
O 12.6636 -17.8089 13.5304
Si 14.0228 -18.6109 13.9543
Si 11.9075 -15.1744 15.8162
O 10.8952 -18.3949 14.3427
Si 11.225 -20.0201 14.348
Si 9.90232 -17.0851 14.3677
O 10.6244 -20.7166 15.7335
O 12.8849 -19.827 14.2176
O 10.5775 -20.8036 13.0369
O 8.79496 -17.2917 15.5295
O 10.6338 -15.7378 14.919
O 9.28329 -16.8777 12.8752
O 14.5012 -13.5634 16.9697
Si 16.0516 -14.07 16.7554
Si 13.1758 -12.6103 16.8001
O 13.2008 -16.1972 16.9076
Si 14.6811 -16.9686 16.6451
Si 12.2578 -16.3394 18.4575
O 14.7629 -18.0578 17.9379
O 15.8086 -15.7284 16.6745
O 14.7382 -17.9301 15.2868
O 12.5105 -15.3812 19.714
O 12.0501 -13.6227 16.2464
O 11.2844 -15.7571 17.2602
O 16.2933 -8.97055 14.2897
Si 17.8485 -9.49281 14.0925
Si 14.7547 -8.42207 14.0694
O 15.3003 -11.766 13.7711
Si 16.746 -12.4983 14.0267
Si 13.7648 -11.288 14.0747
O 16.7678 -13.4258 15.4026
O 17.7602 -11.1644 14.0648
O 16.852 -13.4939 12.6947
O 13.3266 -11.5271 15.613
O 13.782 -9.68945 13.8864
O 12.9204 -11.9635 12.8637
O 17.5214 -4.18444 16.9212
Si 19.0676 -4.74786 16.8468
Si 15.8857 -4.07217 16.8532
O 16.705 -7.66276 16.5734
Si 18.3188 -7.88684 16.7794
Si 15.1941 -7.06315 16.7542
O 18.5142 -8.81485 18.1384
O 19.1065 -6.41598 16.8229
O 18.5861 -8.82619 15.4289
O 14.5732 -7.47183 18.1844
O 15.118 -5.46421 16.6321
O 14.425 -7.67062 15.4652
O 18.0985 0.457388 14.0869
Si 19.691 0.0888452 14.193
Si 16.4835 0.347465 14.3043
O 17.6992 -3.16567 14.1023
Si 19.3446 -3.1248 14.1443
Si 16.1282 -2.69795 14.1482
O 19.697 -4.01743 15.4974
O 19.9322 -1.56253 14.1597
O 19.7132 -4.02345 12.7944
O 15.5239 -3.16952 15.5663
O 15.8947 -1.11711 14.0095
O 15.4589 -3.40715 12.8591
O 18.0885 4.66945 22.2949
Si 19.699 4.95051 22.123
Si 16.4782 4.76946 21.9963
O 18.1441 1.91769 22.5401
Si 19.7764 1.76256 22.3106
Si 16.5048 1.77266 22.4296
O 20.2468 0.919545 23.6669
O 20.2481 3.36643 22.1849
O 20.177 0.851108 20.9852
O 15.9739 1.23198 23.8567
O 15.9439 3.26702 22.2247
O 16.0522 0.857301 21.1777
O 17.5466 9.43429 19.5987
Si 19.1493 9.8324 19.5705
Si 16.1063 9.01238 20.365
O 17.9298 6.67131 19.1356
Si 19.5562 6.6621 19.3895
Si 16.3608 6.20714 19.2788
O 20.0248 5.79301 20.7281
O 19.8544 8.31172 19.48
O 20.1168 5.87952 18.0333
O 16.1501 5.12165 20.4535
O 15.6638 7.52944 19.8888
O 15.9192 5.70895 17.7968
O 15.4711 13.0245 21.2249
Si 16.8316 13.923 21.475
Si 14.5417 11.6813 21.0906
O 17.4757 11.1812 23.0136
Si 18.8798 11.555 22.2543
Si 16.2687 10.1281 23.0117
O 19.4759 10.8648 23.6893
O 18.2231 13.0292 21.7476
O 19.4415 10.6542 20.9819
O 15.6109 9.78238 24.4142
O 15.4352 10.3692 21.4564
O 16.6733 8.88542 21.9595
O 12.3307 15.5275 19.3385
Si 13.0846 16.9692 19.0876
Si 11.1639 14.3794 19.2477
O 14.3904 13.9357 18.4341
Si 15.5916 15.0409 18.7488
Si 13.4558 12.5729 18.3993
O 16.6068 14.7369 20.034
O 14.6569 16.4165 18.9357
O 16.4858 14.9035 17.3606
O 13.9208 11.6098 19.6075
O 11.9663 13.0512 18.8011
O 13.5183 11.8892 16.9309
O 8.28034 18.0328 21.8213
Si 8.93729 19.5309 21.6406
Si 7.32704 16.7186 21.5639
O 10.6201 16.6604 21.6426
Si 11.6736 17.9166 21.765
Si 9.93225 15.1984 21.9312
O 12.5461 17.8133 23.1692
O 10.5692 19.1708 21.688
O 12.6941 17.819 20.4596
O 10.1202 14.6756 23.452
O 8.35122 15.482 21.7498
O 10.4706 14.2662 20.7138
O 4.00261 20.2164 19.0461
Si 4.59664 21.759 19.0521
Si 3.4865 18.7864 19.7737
O 6.54082 18.9648 18.686
Si 7.43935 20.3266 18.9081
Si 6.0286 17.4107 18.847
O 8.40904 20.2674 20.2527
O 6.24463 21.4937 18.9696
O 8.39909 20.3781 17.5568
O 6.77378 16.6237 20.0461
O 4.50388 17.5892 19.3607
O 6.24955 16.7388 17.381
O -0.115859 20.719 20.6291
Si -0.0205812 22.349 20.8719
Si 0.36723 19.154 20.5037
O 2.51616 21.1576 22.4518
Si 3.061 22.5291 21.7386
Si 2.65347 19.5599 22.4264
O 3.94488 22.6303 23.1796
O 1.51753 22.9175 21.1908
O 4.12309 22.4579 20.4748
O 2.57572 18.8061 23.8219
O 1.95917 19.05 20.8641
O 3.88698 19.1617 21.3732
O -4.09459 19.8616 18.6721
Si -4.71921 21.3676 18.4402
Si -3.9265 18.2326 18.572
O -1.51629 20.4482 17.8595
Si -1.64663 22.0798 18.1448
Si -1.03689 18.8658 17.8165
O -0.779912 22.6875 19.4274
O -3.29825 22.231 18.3135
O -1.00911 22.6863 16.7474
O 0.00398721 18.6145 19.0283
O -2.36778 18.0196 18.1869
O -0.43859 18.492 16.3519
O -8.55227 18.4807 21.1672
Si -9.34258 19.9094 21.0111
Si -8.25191 16.8851 20.966
O -6.04285 19.297 20.9975
Si -6.3398 20.9114 21.116
Si -5.3698 17.8196 21.2574
O -5.70249 21.5124 22.5194
O -8.00683 20.911 21.0285
O -5.61303 21.6242 19.8104
O -4.78004 17.6055 22.7513
O -6.64258 16.8231 21.1429
O -4.33489 17.6082 20.0194
O -12.3898 17.1185 17.3933
Si -13.7261 17.9612 17.8177
Si -11.7426 14.4305 19.6851
O -10.6095 17.6316 18.2842
Si -10.911 19.2623 18.2864
Si -9.65216 16.2934 18.264
O -10.3115 19.9641 19.6656
O -12.5665 19.134 18.1247
O -10.2652 20.0238 16.9713
O -8.53316 16.4436 19.43
O -10.4408 14.9633 18.7953
O -9.02391 16.1014 16.7672
O -14.4475 12.9602 20.7562
Si -15.9628 13.5688 20.5643
Si -13.1858 11.9192 20.6149
O -12.9805 15.5289 20.7751
Si -14.4267 16.3654 20.5079
Si -12.0192 15.6351 22.3259
O -14.4776 17.4542 21.7963
O -15.6235 15.2029 20.5115
O -14.4636 17.3144 19.1469
O -12.3219 14.6836 23.5787
O -11.9911 12.881 20.0974
O -11.089 14.9899 21.1252
O -16.5861 8.75125 17.8142
Si -18.1595 9.22229 17.7257
Si -15.207 7.90512 17.5313
O -15.412 11.1785 17.6485
Si -16.7756 12.0791 17.8339
Si -13.8881 10.6196 17.8985
O -16.7373 12.99 19.2174
O -17.9362 10.8773 17.8041
O -16.7915 13.0757 16.5095
O -13.3851 10.8465 19.4208
O -14.0504 9.02316 17.6989
O -13.0041 11.243 16.6815
O -18.2212 4.47452 20.9829
Si -19.8439 4.67823 20.794
Si -16.7499 3.75122 20.9382
O -17.3886 6.87779 20.1406
Si -18.8146 7.65932 20.4098
Si -15.7847 6.53558 20.2129
O -18.8272 8.6727 21.7192
O -19.8274 6.34275 20.6114
O -18.9585 8.57153 19.028
O -15.063 7.31434 21.4334
O -15.7452 4.95905 20.5621
O -15.1306 6.84655 18.7591
O -19.272 -0.132367 17.7907
Si -20.9228 -0.0779262 17.9536
Si -17.6925 -0.592605 17.6119
O -18.7531 2.44169 17.9979
Si -20.2835 3.03585 18.0827
Si -17.131 2.32725 18.2217
O -20.4783 3.9037 19.4766
O -21.115 1.58268 18.0523
O -20.5094 4.02749 16.7679
O -16.6693 2.66761 19.7372
O -16.8675 0.763477 17.9108
O -16.4432 3.16737 17.0173
O -19.8408 -4.20735 22.2833
Si -21.1693 -4.83812 21.5593
Si -18.2378 -4.25326 22.2661
O -19.5481 -1.61059 20.3007
Si -21.15 -1.73807 20.6783
Si -17.9534 -1.98302 20.293
O -21.4886 -0.755394 21.9615
O -21.6364 -3.30833 21.0082
O -21.5219 -0.944984 19.2481
O -17.3372 -1.14555 21.5359
O -17.7668 -3.55316 20.6907
O -17.3879 -1.60983 18.8297
O -17.348 -8.05103 18.6256
Si -18.6224 -9.0749 18.8169
Si -15.8229 -7.44414 18.7216
O -18.7937 -5.66111 18.8739
Si -20.2952 -6.34853 18.8787
Si -17.4177 -5.04504 19.6198
O -21.035 -5.89188 20.2893
O -19.8907 -7.97663 18.8454
O -21.1967 -5.75808 17.5871
O -17.7772 -5.47854 21.2202
O -16.1281 -5.94467 19.2364
O -17.4949 -4.13507 18.2631
O -14.6823 -11.8295 22.1047
Si -15.7778 -13.0375 21.8714
Si -13.2536 -11.0237 22.0737
O -16.2169 -9.75658 21.6572
Si -17.6806 -10.502 21.5498
Si -15.0221 -8.65075 21.4349
O -18.5718 -10.0255 22.8631
O -17.1461 -12.0877 21.6712
O -18.4691 -10.0491 20.1575
O -15.1862 -7.57215 22.6377
O -13.6885 -9.50663 21.7415
O -14.9615 -8.12218 19.9081
O -11.4726 -15.2577 19.0963
Si -12.4277 -16.596 19.0405
Si -10.194 -14.2592 18.8375
O -13.3059 -13.4004 19.106
Si -14.6619 -14.33 19.1597
Si -12.2904 -12.1343 19.3556
O -15.483 -14.0061 20.5599
O -13.9193 -15.8324 19.101
O -15.6146 -13.9524 17.8491
O -12.3168 -11.5463 20.8636
O -10.8443 -12.8043 19.097
O -12.579 -11.1018 18.1422
O -7.96511 -18.1725 22.0559
Si -8.64625 -19.6637 22.0821
Si -6.78618 -17.0525 22.2299
O -9.93216 -16.6515 21.4878
Si -11.1531 -17.7326 21.7319
Si -9.09767 -15.2373 21.5218
O -12.1189 -17.4183 23.041
O -10.2284 -19.117 21.9432
O -12.0645 -17.5573 20.3493
O -9.61109 -14.2937 22.7309
O -7.5912 -15.7008 21.8672
O -9.16346 -14.5623 20.0495
O -4.06005 -20.8119 20.1084
Si -4.55041 -22.3172 19.6497
Si -3.02219 -19.9439 21.0721
O -6.03944 -19.4004 19.4161
Si -7.18814 -20.5903 19.3988
Si -5.53157 -17.8403 19.5271
O -8.14133 -20.5027 20.7494
O -6.16013 -21.9089 19.4626
O -8.17267 -20.4649 18.0591
O -5.69019 -17.3096 21.0574
O -4.01092 -17.6862 18.9729
O -6.31246 -17.0024 18.3765
O 0.292281 -21.3091 22.4438
Si 0.212184 -22.9553 22.4067
Si -0.174987 -19.735 22.4369
O -2.54241 -21.307 21.9011
Si -2.95217 -22.8405 22.3044
Si -2.81059 -18.5663 23.6987
O -3.83322 -22.96 23.7024
O -1.38682 -23.4163 22.3753
O -3.93803 -23.1002 20.9872
O -2.37479 -19.2652 25.1205
O -1.78638 -19.4411 22.4162
O -3.74346 -19.0551 22.3359
O 4.73178 -20.4722 19.9691
Si 4.97516 -22.077 19.7219
Si 4.24114 -18.9276 19.7454
O 1.31207 -21.1594 19.7026
Si 1.82502 -22.7277 19.7048
Si 1.22306 -19.5187 19.7354
O 1.09331 -23.343 21.0588
O 3.48803 -22.8296 19.6906
O 1.0729 -23.3513 18.3639
O 0.409928 -19.1088 21.0685
O 2.64289 -18.7704 19.8331
O 0.463729 -19.0913 18.373
O 8.89521 -19.2591 22.7426
Si 9.64132 -20.6923 22.4772
Si 8.54332 -17.6883 22.4834
O 6.17021 -20.0849 22.2021
Si 6.60063 -21.6676 22.4018
Si 5.63671 -18.5415 22.4284
O 5.89522 -22.294 23.7642
O 8.27456 -21.6605 22.4147
O 5.90796 -22.3784 21.0671
O 4.68569 -18.3393 23.7141
O 6.9405 -17.6201 22.6415
O 4.89233 -18.1846 21.0322
O 12.6636 -17.8089 18.9337
Si 14.0228 -18.6109 19.3576
Si 11.9075 -15.1744 21.2195
O 10.8952 -18.3949 19.746
Si 11.225 -20.0201 19.7513
Si 9.90232 -17.0851 19.771
O 10.6244 -20.7166 21.1368
O 12.8849 -19.827 19.6209
O 10.5775 -20.8036 18.4402
O 8.79496 -17.2917 20.9328
O 10.6338 -15.7378 20.3223
O 9.28329 -16.8777 18.2785
O 14.5012 -13.5634 22.373
Si 16.0516 -14.07 22.1587
Si 13.1758 -12.6103 22.2033
O 13.2008 -16.1972 22.3108
Si 14.6811 -16.9686 22.0484
Si 12.2578 -16.3394 23.8607
O 14.7629 -18.0578 23.3412
O 15.8086 -15.7284 22.0778
O 14.7382 -17.9301 20.69
O 12.5105 -15.3812 25.1173
O 12.0501 -13.6227 21.6497
O 11.2844 -15.7571 22.6635
O 16.2933 -8.97054 19.6929
Si 17.8485 -9.49281 19.4958
Si 14.7547 -8.42208 19.4727
O 15.3003 -11.766 19.1744
Si 16.746 -12.4983 19.4299
Si 13.7648 -11.288 19.478
O 16.7678 -13.4258 20.8059
O 17.7602 -11.1644 19.4681
O 16.852 -13.4939 18.098
O 13.3266 -11.5271 21.0162
O 13.782 -9.68946 19.2896
O 12.9204 -11.9635 18.267
O 17.5214 -4.18444 22.3244
Si 19.0676 -4.74786 22.25
Si 15.8857 -4.07218 22.2565
O 16.705 -7.66277 21.9767
Si 18.3188 -7.88684 22.1826
Si 15.1941 -7.06316 22.1575
O 18.5142 -8.81485 23.5416
O 19.1065 -6.41599 22.2261
O 18.5861 -8.8262 20.8322
O 14.5732 -7.47183 23.5876
O 15.118 -5.46422 22.0353
O 14.425 -7.67063 20.8684
O 18.0985 0.45741 19.4902
Si 19.691 0.0888533 19.5963
Si 16.4835 0.347477 19.7075
O 17.6992 -3.16566 19.5056
Si 19.3446 -3.1248 19.5476
Si 16.1282 -2.69794 19.5515
O 19.697 -4.01743 20.9007
O 19.9322 -1.56252 19.5629
O 19.7132 -4.02344 18.1977
O 15.5239 -3.16952 20.9696
O 15.8947 -1.1171 19.4128
O 15.4589 -3.40714 18.2623
O 18.0885 4.66944 27.6981
Si 19.699 4.95051 27.5262
Si 16.4782 4.76947 27.3996
O 18.1441 1.91771 27.9433
Si 19.7764 1.76257 27.7138
Si 16.5048 1.77267 27.8329
O 20.2468 0.91955 29.0702
O 20.2481 3.36644 27.5881
O 20.177 0.851107 26.3885
O 15.9739 1.23199 29.2599
O 15.9439 3.26702 27.628
O 16.0523 0.857289 26.581
O 17.5466 9.43431 25.002
Si 19.1493 9.83241 24.9738
Si 16.1063 9.01239 25.7682
O 17.9298 6.67133 24.5389
Si 19.5562 6.66211 24.7927
Si 16.3608 6.20715 24.6821
O 20.0248 5.79303 26.1314
O 19.8544 8.31173 24.8832
O 20.1168 5.87954 23.4366
O 16.1501 5.12167 25.8567
O 15.6638 7.52945 25.292
O 15.9192 5.70896 23.2
O 15.4711 13.0245 26.628
Si 16.8316 13.923 26.8783
Si 14.5417 11.6813 26.4938
O 17.4756 11.1812 28.4169
Si 18.8798 11.555 27.6576
Si 16.2687 10.1281 28.415
O 19.4759 10.8648 29.0926
O 18.2231 13.0292 27.1509
O 19.4415 10.6542 26.3852
O 15.6108 9.78235 29.8175
O 15.4352 10.3692 26.8596
O 16.6733 8.8854 27.3628
O 12.3307 15.5275 24.7418
Si 13.0846 16.9691 24.4909
Si 11.1639 14.3794 24.651
O 14.3904 13.9357 23.8373
Si 15.5916 15.0409 24.1521
Si 13.4558 12.5729 23.8025
O 16.6068 14.7369 25.4373
O 14.6569 16.4164 24.339
O 16.4857 14.9035 22.7639
O 13.9208 11.6098 25.0108
O 11.9662 13.0512 24.2044
O 13.5182 11.8892 22.3342
O 8.28038 18.0329 27.2246
Si 8.93732 19.531 27.0438
Si 7.32709 16.7187 26.9672
O 10.6201 16.6605 27.0459
Si 11.6736 17.9167 27.1683
Si 9.93225 15.1985 27.3345
O 12.5461 17.8133 28.5725
O 10.5692 19.1708 27.0913
O 12.6941 17.819 25.8629
O 10.1202 14.6756 28.8553
O 8.35123 15.4821 27.153
O 10.4706 14.2662 26.1171
O 4.00273 20.2167 24.4494
Si 4.5967 21.7592 24.4553
Si 3.48661 18.7867 25.177
O 6.54087 18.965 24.0893
Si 7.43939 20.3268 24.3114
Si 6.02864 17.4109 24.2503
O 8.40906 20.2675 25.6559
O 6.2447 21.4939 24.3728
O 8.39915 20.3782 22.9601
O 6.77385 16.6239 25.4493
O 4.50395 17.5895 24.7641
O 6.24955 16.739 22.7843
O -0.115948 20.7189 26.033
Si -0.0205505 22.349 26.2751
Si 0.367347 19.1541 25.907
O 2.51624 21.1579 27.8551
Si 3.06106 22.5294 27.1419
Si 2.65354 19.5602 27.8296
O 3.94494 22.6304 28.5829
O 1.51753 22.9176 26.5941
O 4.12315 22.4583 25.878
O 2.57568 18.8063 29.2251
O 1.95929 19.0502 26.2674
O 3.8871 19.1621 26.7764
O -4.09446 19.8615 24.0751
Si -4.71914 21.3675 23.8435
Si -3.92641 18.2325 23.9753
O -1.51639 20.4482 23.2627
Si -1.6466 22.0798 23.5481
Si -1.03684 18.8659 23.2198
O -0.779815 22.6874 24.8306
O -3.29821 22.231 23.7168
O -1.00915 22.6863 22.1506
O 0.00420258 18.6148 24.4315
O -2.36763 18.0196 23.5904
O -0.438759 18.4921 21.7551
O -8.55207 18.4806 26.5698
Si -9.3426 19.9092 26.4141
Si -8.25199 16.8849 26.3691
O -6.04306 19.2967 26.4007
Si -6.33984 20.9112 26.5192