2880
 Atoms. Timestep: 21528
O -4.82301 58.9726 1.69982
Si -4.68523 60.613 1.6995
Si -4.46551 57.3704 1.69917
O -1.17461 59.1667 1.69978
Si -1.48548 60.7833 1.69947
Si -1.36033 57.5356 1.69911
O -0.708164 61.3035 3.0649
O -3.10753 61.115 1.69949
O -0.708138 61.3035 0.334051
O -0.65784 57.017 3.06903
O -2.88975 57.0176 1.68574
O -0.640259 57.0172 0.338117
O -9.43251 58.4008 -1.03102
Si -9.42384 60.047 -1.03128
Si -8.95029 56.8316 -1.03158
O -5.81068 58.8808 -1.03121
Si -6.24741 60.4681 -1.03135
Si -5.86765 57.2402 -1.03168
O -5.51333 61.0477 0.334044
O -7.89049 60.6713 -1.03131
O -5.51335 61.0478 3.06495
O -5.12644 56.7784 0.338192
O -7.35167 56.6036 -1.04489
O -5.10909 56.78 3.06901
O -31.0448 50.2994 1.69835
Si -31.6657 51.8241 1.69825
Si -30 49.0332 1.6979
O -27.8809 52.1261 1.69896
Si -28.8909 53.4261 1.69867
Si -27.3069 50.5881 1.69839
O -28.4342 54.2422 3.06411
O -30.487 52.9867 1.69847
O -28.4341 54.2422 0.333274
O -26.4444 50.4451 3.06765
O -28.4355 49.433 1.68691
O -26.4311 50.4521 0.336775
O -34.8952 47.7018 -1.03303
Si -35.6332 49.1733 -1.03305
Si -33.7547 46.5211 -1.03339
O -31.8838 49.7702 -1.03243
Si -32.9923 50.9873 -1.03263
Si -31.1914 48.2818 -1.03295
O -32.6008 51.8366 0.332813
O -34.5492 50.4245 -1.03282
O -32.6008 51.8366 3.06365
O -30.3199 48.2068 0.336142
O -32.2261 47.042 -1.04403
O -30.3078 48.2145 3.06698
O -50.5088 30.7017 1.69818
Si -51.752 31.7809 1.69777
Si -49.0043 30.0451 1.69753
O -48.512 33.7612 1.69725
Si -50.0007 34.464 1.69725
Si -47.3045 32.6491 1.69686
O -49.9619 35.3983 3.06268
O -51.226 33.3506 1.69753
O -49.962 35.3983 0.33174
O -46.47 32.9115 3.06583
O -47.7892 31.1087 1.68596
O -46.4619 32.923 0.335071
O -58.4344 9.0259 -1.0313
Si -54.0919 27.6218 -1.0328
Si -51.2164 26.1071 -1.03306
O -51.0179 29.8507 -1.03299
Si -52.5571 30.4345 -1.03306
Si -49.727 28.8367 -1.03333
O -52.5918 31.3691 0.332397
O -53.691 29.2281 -1.03296
O -52.5918 31.3692 3.06321
O -48.916 29.1633 0.335928
O -50.0889 27.263 -1.04503
O -48.9082 29.1763 3.06685
O -58.9659 4.41142 1.69942
Si -60.5636 4.80828 1.69923
Si -57.3273 4.50983 1.69895
O -58.5783 8.04431 1.69972
Si -60.2237 7.99431 1.69929
Si -56.9974 7.60194 1.69908
O -60.614 8.8442 3.06476
O -60.8088 6.44557 1.6992
O -60.614 8.84436 0.333909
O -56.3738 8.21362 3.06881
O -56.7288 6.00963 1.68631
O -56.3714 8.23026 0.337899
O -59.1342 -0.230295 -1.03163
Si -60.758 0.0404274 -1.03187
Si -57.5083 -0.00395408 -1.03229
O -59.0321 3.42161 -1.03127
Si -60.6686 3.24318 -1.03162
Si -57.4214 3.10457 -1.0319
O -61.1244 4.0599 0.333777
O -61.1307 1.65345 -1.03174
O -61.1244 4.05998 3.06475
O -56.8478 3.76366 0.337711
O -57.0289 1.53813 -1.04445
O -56.8467 3.78007 3.06855
O -58.9402 -4.87078 1.69912
Si -60.5802 -4.72787 1.69888
Si -57.3369 -4.51824 1.6985
O -59.1231 -1.22203 1.69897
Si -60.7407 -1.52795 1.69897
Si -57.4926 -1.41237 1.69855
O -61.2587 -0.749329 3.06436
O -61.0774 -3.14881 1.69898
O -61.2588 -0.749401 0.333555
O -56.9721 -0.71022 3.06802
O -56.9792 -2.94348 1.68639
O -56.9722 -0.694371 0.33715
O -58.3844 -9.48187 -1.0318
Si -60.0306 -9.46748 -1.03198
Si -56.8135 -9.00534 -1.0324
O -58.8518 -5.85861 -1.03196
Si -60.4405 -6.28998 -1.03198
Si -57.2114 -5.92115 -1.03236
O -61.0178 -5.55425 0.333418
O -60.6496 -7.93215 -1.0319
O -61.0178 -5.55436 3.06429
O -56.7472 -5.18055 0.337117
O -56.5799 -7.40745 -1.04461
O -56.7486 -5.16471 3.06796
O -57.4715 -14.0357 1.69955
Si -59.1137 -14.1499 1.69925
Si -55.9425 -13.4381 1.69897
O -58.2193 -10.4599 1.69885
Si -59.7695 -11.0139 1.69887
Si -56.579 -10.3942 1.69844
O -60.4024 -10.3254 3.06426
O -59.8503 -12.6674 1.6991
O -60.4024 -10.3256 0.333392
O -56.174 -9.61973 3.06794
O -55.8339 -11.8269 1.68605
O -56.1766 -9.60391 0.337098
O -56.2065 -18.5047 -1.03132
Si -57.8348 -18.747 -1.03151
Si -54.729 -17.7894 -1.03174
O -57.231 -14.9979 -1.0313
Si -58.7331 -15.6715 -1.03159
Si -55.6009 -14.8045 -1.03188
O -59.4176 -15.0344 0.333877
O -58.6847 -17.3263 -1.03161
O -59.4176 -15.0343 3.06469
O -55.2571 -14.0014 0.337856
O -54.7463 -16.1747 -1.04507
O -55.2612 -13.9848 3.06877
O -54.595 -22.861 1.6991
Si -56.1993 -23.2299 1.69897
Si -53.1781 -22.0319 1.69858
O -55.8915 -19.4453 1.69988
Si -57.3363 -20.2343 1.69934
Si -54.2816 -19.1247 1.69912
O -58.0686 -19.6528 3.0649
O -57.1582 -21.8803 1.69913
O -58.0686 -19.6526 0.33389
O -54.0015 -18.2974 3.06897
O -53.3222 -20.4236 1.68549
O -54.0072 -18.2807 0.338218
O -52.6461 -27.077 -1.0321
Si -54.2165 -27.5708 -1.03211
Si -51.2987 -26.1392 -1.03252
O -54.207 -23.7737 -1.03169
Si -55.5855 -24.6737 -1.0319
Si -52.6272 -23.3278 -1.03227
O -56.3612 -24.151 0.333491
O -55.2784 -26.3006 -1.03193
O -56.3612 -24.1511 3.0644
O -52.4131 -22.481 0.337506
O -51.5687 -24.5472 -1.04561
O -52.4199 -22.4651 3.06844
O -50.3717 -31.1267 1.69895
Si -51.8984 -31.7425 1.69879
Si -49.1022 -30.0859 1.69837
O -52.1876 -27.9563 1.69897
Si -53.4909 -28.962 1.69874
Si -50.6476 -27.3877 1.69833
O -54.3054 -28.5019 3.06417
O -53.0569 -30.5597 1.69885
O -54.3053 -28.5021 0.33322
O -50.5007 -26.5267 3.06813
O -49.4965 -28.5201 1.68501
O -50.5087 -26.5115 0.337306
O -47.7856 -34.9849 -1.03136
Si -49.2592 -35.7188 -1.03169
Si -46.602 -33.8475 -1.03203
O -49.8453 -31.9673 -1.03199
Si -51.0657 -33.0723 -1.03205
Si -48.3549 -31.2792 -1.03249
O -51.9138 -32.6777 0.333336
O -50.5072 -34.6309 -1.03184
O -51.9137 -32.6778 3.06417
O -48.2761 -30.4096 0.33738
O -47.1183 -32.3175 -1.04604
O -48.2854 -30.3947 3.06828
O -44.904 -38.6275 1.69978
Si -46.3151 -39.4753 1.69939
Si -43.8136 -37.4004 1.69914
O -47.1948 -35.7813 1.69938
Si -48.3243 -36.979 1.69917
Si -45.7632 -34.9781 1.69881
O -49.2008 -36.6524 3.0646
O -47.6449 -38.4889 1.69924
O -49.2009 -36.6524 0.333761
O -45.7528 -34.1054 3.06893
O -44.4487 -35.9158 1.68457
O -45.7637 -34.0905 0.338099
O -41.7441 -42.0315 -1.03156
Si -43.084 -42.9878 -1.03165
Si -40.7539 -40.7222 -1.03198
O -44.2523 -39.3749 -1.03108
Si -45.2839 -40.6579 -1.03146
Si -42.8885 -38.4613 -1.03171
O -46.1833 -40.4015 0.334059
O -44.4875 -42.1094 -1.03159
O -46.1834 -40.4014 3.06482
O -42.9465 -37.5908 0.338587
O -41.5041 -39.2924 -1.04656
O -42.9592 -37.5763 3.06947
O -38.3254 -45.1754 1.699
Si -39.5858 -46.2344 1.69896
Si -37.4416 -43.7921 1.69857
O -41.0355 -42.7251 1.69969
Si -41.9627 -44.0853 1.6992
Si -39.7479 -41.7067 1.69888
O -42.8797 -43.9006 3.06462
O -41.0542 -45.4695 1.69911
O -42.8797 -43.9006 0.333809
O -39.8744 -40.8435 3.06918
O -38.3023 -42.4259 1.68402
O -39.8883 -40.8301 0.338362
O -34.6694 -48.0399 -1.03169
Si -35.8422 -49.1951 -1.03195
Si -33.8975 -46.5911 -1.03234
O -37.5644 -45.8108 -1.03153
Si -38.3812 -47.2401 -1.03188
Si -36.3611 -44.6942 -1.03228
O -39.31 -47.1283 0.333529
O -37.3664 -48.5483 -1.03187
O -39.3099 -47.1283 3.06436
O -36.5553 -43.8436 0.338009
O -34.8633 -45.2971 -1.04706
O -36.5701 -43.8314 3.06887
O -30.7986 -50.6066 1.69936
Si -31.8765 -51.8508 1.69901
Si -30.1434 -49.1015 1.69866
O -33.8606 -48.6132 1.69905
Si -34.562 -50.1025 1.6989
Si -32.7492 -47.4051 1.69851
O -35.4967 -50.0644 3.06431
O -33.447 -51.3265 1.69897
O -35.4967 -50.0644 0.333449
O -33.0099 -46.5726 3.06885
O -31.2084 -47.8879 1.68365
O -33.0257 -46.5614 0.338015
O -26.7371 -52.8599 -1.03132
Si -27.7135 -54.1853 -1.03176
Si -26.2027 -51.3077 -1.03202
O -29.9468 -51.1144 -1.03165
Si -30.5287 -52.6543 -1.03185
Si -28.9343 -49.8223 -1.0322
O -31.4634 -52.6901 0.333584
O -29.3205 -53.7865 -1.03184
O -31.4634 -52.6901 3.06444
O -29.2598 -49.013 0.338235
O -27.3602 -50.1819 -1.04724
O -29.2767 -49.003 3.06906
O -22.5103 -54.7855 1.69898
Si -23.3791 -56.1838 1.69876
Si -22.1002 -53.196 1.6984
O -25.8479 -53.2988 1.69942
Si -26.3063 -54.8799 1.69907
Si -24.9405 -51.9308 1.69883
O -27.2353 -54.9893 3.06453
O -25.0125 -55.9131 1.69888
O -27.2355 -54.9893 0.333721
O -25.3288 -51.1499 3.06932
O -23.3429 -52.1651 1.68364
O -25.3466 -51.1411 0.33847
O -18.1448 -56.3716 -1.03216
Si -18.9006 -57.8341 -1.03243
Si -17.8613 -54.7547 -1.03276
O -21.5892 -55.1529 -1.0318
Si -21.9215 -56.7652 -1.03211
Si -20.7926 -53.7176 -1.03245
O -22.839 -56.9477 0.333346
O -20.5503 -57.6932 -1.03227
O -22.839 -56.9477 3.06416
O -21.2417 -52.9696 0.337876
O -19.1815 -53.8251 -1.04713
O -21.2595 -52.9625 3.06871
O -13.6677 -57.6084 1.69803
Si -14.3059 -59.1259 1.69799
Si -13.5126 -55.9742 1.69759
O -17.1975 -56.6652 1.69867
Si -17.4017 -58.2987 1.6984
Si -16.5166 -55.1715 1.69809
O -18.302 -58.5529 3.06381
O -15.9616 -59.1156 1.69822
O -18.302 -58.5529 0.33302
O -17.0236 -54.4612 3.06828
O -14.902 -55.1516 1.68386
O -17.0414 -54.4557 0.33741
O -9.10726 -58.4885 -1.03304
Si -9.62388 -60.0516 -1.03318
Si -9.08123 -56.8472 -1.03358
O -12.7003 -57.8263 -1.03255
Si -12.7752 -59.4708 -1.03287
Si -12.1392 -56.2836 -1.03324
O -13.6526 -59.7953 0.332529
O -11.2752 -60.1717 -1.03299
O -13.6525 -59.7953 3.06341
O -12.701 -55.6154 0.336724
O -10.5312 -56.1365 -1.04683
O -12.7184 -55.6115 3.06755
O 13.9478 -57.4457 1.69613
Si 14.0685 -59.0875 1.69621
Si 13.344 -55.9192 1.69582
O 10.3751 -58.2086 1.69696
Si 10.9353 -59.7566 1.69666
Si 10.303 -56.5686 1.69641
O 10.2495 -60.3922 3.06211
O 12.5891 -59.8304 1.69644
O 10.2495 -60.3923 0.331279
O 9.52693 -56.1666 3.06581
O 11.7324 -55.8174 1.68444
O 9.51161 -56.1693 0.334918
O 18.4107 -56.161 -1.03522
Si 18.6593 -57.7883 -1.0351
Si 17.6895 -54.6863 -1.0356
O 14.9086 -57.2008 -1.03431
Si 15.5881 -58.7002 -1.03465
Si 14.7085 -55.5714 -1.03502
O 14.9541 -59.3876 0.330747
O 17.2426 -58.6446 -1.0348
O 14.9541 -59.3875 3.06164
O 13.9031 -55.2314 0.33424
O 16.0749 -54.7107 -1.04664
O 13.8886 -55.2352 3.06505
O 38.5022 -44.8041 1.69675
Si 39.3515 -46.2143 1.69639
Si 37.2737 -43.7152 1.69605
O 35.659 -47.0979 1.69592
Si 36.8581 -48.2258 1.69596
Si 34.8536 -45.6675 1.69546
O 36.5334 -49.1025 3.06138
O 38.367 -47.5451 1.69622
O 36.5335 -49.1025 0.330435
O 33.9802 -45.6587 3.06521
O 35.7898 -44.3519 1.68213
O 33.9664 -45.6689 0.334438
O 52.7392 -26.643 -1.03326
Si 42.8605 -42.9819 -1.03413
Si 40.5934 -40.6532 -1.03441
O 39.2487 -44.1522 -1.03427
Si 40.5324 -45.1828 -1.03444
Si 38.3339 -42.7891 -1.03482
O 40.2772 -46.0823 0.330989
O 41.9833 -44.3858 -1.03432
O 40.2772 -46.0823 3.06184
O 37.4631 -42.8482 0.33529
O 39.1641 -41.4042 -1.04927
O 37.4491 -42.8604 3.06623
O 54.6728 -22.4202 1.69743
Si 56.0694 -23.2916 1.6971
Si 53.0839 -22.0077 1.69674
O 53.1799 -25.7547 1.69751
Si 54.7602 -26.216 1.69715
Si 51.8132 -24.8454 1.69684
O 54.8682 -27.1449 3.06262
O 55.7959 -24.9244 1.69708
O 54.8682 -27.145 0.331735
O 51.032 -25.2314 3.06781
O 52.0506 -23.2484 1.68008
O 51.0222 -25.2511 0.337016
O 59.1009 0.226096 -1.03438
Si 57.7273 -18.8173 -1.0339
Si 54.65 -17.7722 -1.03426
O 55.0417 -21.5003 -1.03338
Si 56.6533 -21.8359 -1.03376
Si 53.6077 -20.7014 -1.03411
O 56.8342 -22.7535 0.331658
O 57.5837 -20.4666 -1.03387
O 56.8342 -22.7535 3.06258
O 52.8593 -21.1479 0.33678
O 53.718 -19.0906 -1.05078
O 52.8512 -21.1681 3.06779
O 58.9046 4.86655 1.6964
Si 60.5447 4.72419 1.69604
Si 57.3016 4.51272 1.69575
O 59.0897 1.21779 1.69654
Si 60.7071 1.52445 1.69614
Si 57.4591 1.40723 1.69587
O 61.2254 0.74623 3.0616
O 61.0429 3.14548 1.69605
O 61.2254 0.746164 0.330725
O 56.9386 0.707288 3.06633
O 56.9449 2.93794 1.6807
O 56.9388 0.687328 0.335554
O 58.3446 9.47666 -1.03493
Si 59.9908 9.46321 -1.03518
Si 56.7742 8.99864 -1.03567
O 58.8152 5.85386 -1.03446
Si 60.4037 6.28613 -1.03482
Si 57.1748 5.91504 -1.03507
O 60.9816 5.55081 0.330512
O 60.6113 7.92849 -1.03499
O 60.9816 5.55075 3.0616
O 56.7111 5.17603 0.33528
O 56.542 7.40068 -1.04989
O 56.7129 5.15661 3.06618
O 57.4274 14.0291 1.69567
Si 59.0696 14.1444 1.69558
Si 55.899 13.4299 1.69508
O 58.1786 10.4539 1.69567
Si 59.7284 11.0092 1.69565
Si 56.5384 10.3868 1.69517
O 60.3618 10.3214 3.06107
O 59.8076 12.6627 1.69575
O 60.3619 10.3216 0.330168
O 56.1338 9.61335 3.0653
O 55.7919 11.8187 1.68117
O 56.1369 9.59516 0.334427
O 56.1571 18.4957 -1.0345
Si 57.7852 18.7389 -1.03478
Si 54.6801 17.7791 -1.03517
O 57.1857 14.9903 -1.03526
Si 58.6873 15.665 -1.03526
Si 55.5557 14.7955 -1.03576
O 59.3727 15.0288 0.330052
O 58.637 17.3196 -1.03491
O 59.3726 15.029 3.06097
O 55.2127 13.9926 0.33424
O 54.6994 16.1645 -1.04951
O 55.2171 13.9751 3.06511
O 54.5427 22.8496 1.69719
Si 56.1469 23.2194 1.6967
Si 53.1261 22.02 1.6964
O 55.8411 19.4351 1.69622
Si 57.2854 20.225 1.6961
Si 54.2313 19.1136 1.69568
O 58.0183 19.6443 3.06152
O 57.1065 21.8706 1.69641
O 58.0182 19.6444 0.330612
O 53.9519 18.2868 3.06588
O 53.271 20.4118 1.68151
O 53.9578 18.2691 0.334963
O 52.5944 27.0649 -1.03345
Si 54.1648 27.5588 -1.03378
Si 51.2472 26.127 -1.03409
O 54.1549 23.7617 -1.03395
Si 55.5331 24.6621 -1.03413
Si 52.5752 23.3155 -1.03445
O 56.3088 24.1403 0.331342
O 55.2265 26.2888 -1.03398
O 56.3088 24.1403 3.06213
O 52.3606 22.4698 0.335838
O 51.5168 24.535 -1.04917
O 52.3682 22.4519 3.06681
O 50.3212 31.1142 1.69753
Si 51.848 31.7298 1.69729
Si 49.0517 30.0735 1.69696
O 52.1365 27.9438 1.6974
Si 53.4399 28.9493 1.69709
Si 50.5965 27.3752 1.69677
O 54.2542 28.4897 3.06257
O 53.0063 30.547 1.69717
O 54.2542 28.4896 0.331635
O 50.4488 26.5155 3.06714
O 49.4456 28.5077 1.68187
O 50.4578 26.4981 0.336362
O 47.7365 34.9722 -1.03327
Si 49.2102 35.7059 -1.03348
Si 46.5526 33.835 -1.03388
O 49.7955 31.9543 -1.03318
Si 51.0158 33.0591 -1.03354
Si 48.3049 31.2666 -1.03388
O 51.8638 32.6648 0.331896
O 50.4579 34.6178 -1.0335
O 51.8638 32.6648 3.06273
O 48.2252 30.3979 0.336489
O 47.0685 32.305 -1.04879
O 48.2356 30.3813 3.06742
O 44.8562 38.6152 1.69791
Si 46.2676 39.4624 1.6976
Si 43.7654 37.3884 1.6972
O 47.1462 35.7685 1.6976
Si 48.276 36.9658 1.69738
Si 45.7143 34.9657 1.69698
O 49.1523 36.6393 3.0628
O 47.5971 38.4758 1.69753
O 49.1523 36.6393 0.331921
O 45.7032 34.0934 3.06729
O 44.4 35.9037 1.68226
O 45.7147 34.0778 0.336489
O 41.698 42.0202 -1.03234
Si 43.0384 42.9759 -1.03287
Si 40.7072 40.7114 -1.03315
O 44.205 39.3625 -1.03311
Si 45.2371 40.6451 -1.03324
Si 42.8407 38.4496 -1.03365
O 46.1365 40.3884 0.33216
O 44.4414 42.097 -1.03307
O 46.1364 40.3884 3.06303
O 42.8983 37.5792 0.336705
O 41.4567 39.2812 -1.04846
O 42.911 37.5645 3.06758
O 38.2814 45.166 1.69843
Si 39.5424 46.2242 1.69806
Si 37.3968 43.7831 1.69779
O 40.99 42.714 1.69819
Si 41.9179 44.0739 1.69798
Si 39.7019 41.6964 1.69769
O 42.8346 43.8888 3.06348
O 41.0103 45.4585 1.69796
O 42.8347 43.8888 0.332552
O 39.8276 40.8334 3.06817
O 38.2567 42.4165 1.68252
O 39.8418 40.8194 0.337354
O 34.6275 48.0326 -1.03286
Si 35.8011 49.1869 -1.03305
Si 33.8546 46.5843 -1.03342
O 37.5209 45.8018 -1.03239
Si 38.3388 47.2305 -1.0328
Si 36.317 44.6859 -1.03305
O 39.2673 47.1182 0.332651
O 37.3248 48.5393 -1.03294
O 39.2674 47.1181 3.06354
O 36.5104 43.8354 0.337407
O 34.8195 45.2897 -1.04817
O 36.5257 43.8227 3.0683
O 30.7588 50.6021 1.6977
Si 31.8378 51.8455 1.69761
Si 30.1026 49.0974 1.69718
O 33.8192 48.6064 1.69806
Si 34.5218 50.0952 1.69779
Si 32.707 47.3991 1.69744
O 35.4563 50.0564 3.06323
O 33.4078 51.32 1.69778
O 35.4563 50.0565 0.33233
O 32.9671 46.5663 3.06771
O 31.1666 47.8829 1.68294
O 32.9827 46.5552 0.336887
O 26.6995 52.8584 -1.03264
Si 27.6769 54.183 -1.03296
Si 26.1639 51.3067 -1.03337
O 29.9077 51.1104 -1.03311
Si 30.4908 52.65 -1.03324
Si 28.8942 49.8191 -1.03366
O 31.4256 52.685 0.332107
O 29.2836 53.783 -1.03301
O 31.4254 52.6851 3.06299
O 29.2196 49.0093 0.336422
O 27.3204 50.1799 -1.04755
O 29.2354 48.9999 3.06729
O 22.4747 54.7875 1.6987
Si 23.3446 56.1851 1.69835
Si 22.0632 53.1983 1.69802
O 25.8109 53.298 1.6979
Si 26.2706 54.8787 1.6979
Si 24.9024 51.9308 1.69748
O 27.1996 54.9874 3.0633
O 24.9777 55.9131 1.69815
O 27.1996 54.9875 0.332436
O 25.2907 51.1491 3.06753
O 23.305 52.1663 1.68372
O 25.307 51.141 0.336691
O 18.1106 56.377 -1.03191
Si 18.8676 57.8389 -1.03221
Si 17.8258 54.7604 -1.03254
O 21.5541 55.1556 -1.03229
Si 21.8876 56.7677 -1.03248
Si 20.7562 53.7209 -1.03282
O 22.8052 56.9494 0.332941
O 20.5171 57.6967 -1.03236
O 22.8052 56.9494 3.06381
O 21.205 52.9724 0.337292
O 19.1452 53.8297 -1.04674
O 21.2221 52.9656 3.06813
O 13.6347 57.6172 1.69924
Si 14.2739 59.1343 1.69883
Si 13.4781 55.9831 1.69849
O 17.1637 56.6712 1.69888
Si 17.3691 58.3046 1.69865
Si 16.4815 55.1781 1.69832
O 18.2695 58.5582 3.06405
O 15.9296 59.1226 1.69874
O 18.2695 58.5582 0.333255
O 16.988 54.4674 3.06842
O 14.8669 55.1594 1.68449
O 17.0055 54.4619 0.337524
O 9.07473 58.5012 -1.03142
Si 9.59255 60.0639 -1.03177
Si 9.04743 56.8599 -1.03209
O 12.6673 57.836 -1.03198
Si 12.7434 59.4804 -1.03202
Si 12.1049 56.2937 -1.03237
O 13.621 59.8041 0.333406
O 11.244 60.1826 -1.03187
O 13.621 59.8042 3.06425
O 12.6661 55.6251 0.337673
O 10.4968 56.148 -1.04602
O 12.6837 55.6211 3.06849
O 4.45928 59.0233 1.69965
Si 4.85255 60.6218 1.69932
Si 4.56132 57.3849 1.69898
O 8.09309 58.6431 1.69922
Si 8.03957 60.2885 1.69909
Si 7.65395 57.0614 1.69876
O 8.88902 60.6803 3.06448
O 6.48948 60.8703 1.69921
O 8.88899 60.6803 0.333685
O 8.26617 56.439 3.06876
O 6.06227 56.7894 1.68519
O 8.28395 56.4364 0.337895
O -0.182815 59.1805 -1.03124
Si 0.083372 60.8051 -1.03139
Si 0.0476596 57.5552 -1.03175
O 3.46959 59.0874 -1.03136
Si 3.2867 60.7234 -1.03152
Si 3.15621 57.476 -1.03187
O 4.10262 61.1809 0.333895
O 1.69568 61.1815 -1.03146
O 4.10265 61.1809 3.06478
O 3.81566 56.9038 0.338101
O 1.59083 57.0797 -1.04534
O 3.83343 56.9026 3.06892
O -4.49179 -59.0071 1.69772
Si -4.88391 -60.606 1.69749
Si -4.59489 -57.3688 1.69721
O -8.12572 -58.6296 1.69784
Si -8.07095 -60.2749 1.69765
Si -7.68769 -57.0475 1.69728
O -8.91993 -60.6675 3.06308
O -6.52057 -60.8557 1.69758
O -8.91986 -60.6675 0.33222
O -8.3007 -56.4256 3.06711
O -6.09623 -56.7744 1.6842
O -8.31769 -56.4231 0.336181
O 0.150041 -59.1614 -1.03402
Si -0.115282 -60.7861 -1.03389
Si -0.0814309 -57.5362 -1.03433
O -3.50224 -59.0705 -1.03303
Si -3.3184 -60.7064 -1.03338
Si -3.18991 -57.4589 -1.03363
O -4.1338 -61.1646 0.332049
O -1.72721 -61.1636 -1.0336
O -4.13387 -61.1646 3.06297
O -3.85007 -56.8871 0.336122
O -1.62484 -57.0615 -1.04648
O -3.86695 -56.886 3.06691
O 4.78951 -58.9509 1.69695
Si 4.65244 -60.5914 1.69678
Si 4.43132 -57.3489 1.69641
O 1.14144 -59.1469 1.69722
Si 1.4531 -60.7633 1.69695
Si 1.32633 -57.5157 1.69653
O 0.676231 -61.2841 3.06234
O 3.07517 -61.0943 1.69692
O 0.676375 -61.284 0.331491
O 0.622702 -56.9975 3.06599
O 2.85543 -56.9968 1.68449
O 0.60696 -56.9977 0.335075
O 9.39816 -58.3777 -1.03394
Si 9.39 -60.0239 -1.03418
Si 8.91561 -56.8086 -1.03444
O 5.77671 -58.8588 -1.03397
Si 6.21404 -60.4459 -1.03409
Si 5.83321 -57.2182 -1.03445
O 5.48046 -61.0259 0.3313
O 7.85701 -60.6488 -1.03413
O 5.48051 -61.0259 3.06221
O 5.09101 -56.7567 0.334965
O 7.31696 -56.581 -1.04633
O 5.07552 -56.7581 3.06575
O -13.9828 57.4694 1.69995
Si -14.1033 59.1112 1.69958
Si -13.3791 55.9429 1.69931
O -10.4098 58.2318 1.69981
Si -10.9697 59.7799 1.69957
Si -10.3379 56.5918 1.69927
O -10.2835 60.4154 3.06499
O -12.6237 59.8538 1.69955
O -10.2835 60.4154 0.334164
O -9.56268 56.1896 3.0691
O -11.7675 55.8409 1.68618
O -9.54568 56.1925 0.338216
O -18.4461 56.1845 -1.0313
Si -18.695 57.8118 -1.03153
Si -17.7248 54.7099 -1.03186
O -14.9439 57.2245 -1.03107
Si -15.6235 58.7239 -1.03129
Si -14.7438 55.5951 -1.03154
O -14.9892 59.4112 0.334162
O -17.2781 58.6681 -1.03143
O -14.9891 59.4112 3.06503
O -13.9393 55.2549 0.33823
O -16.1101 54.7345 -1.04439
O -13.9228 55.2591 3.06904
O -22.7951 54.5538 1.69925
Si -23.1706 56.1567 1.69901
Si -21.9605 53.1402 1.69864
O -19.3851 55.865 1.69949
Si -20.18 57.3066 1.6993
Si -19.058 54.2563 1.69899
O -19.6016 58.0415 3.06474
O -21.8251 57.1213 1.69916
O -19.6016 58.0415 0.333892
O -18.2289 53.9803 3.06855
O -20.3527 53.2912 1.68672
O -18.2136 53.9855 0.337653
O -27.0033 52.5881 -1.03202
Si -27.5029 54.1566 -1.03216
Si -26.0606 51.2441 -1.03246
O -23.7062 54.1618 -1.03177
Si -24.6114 55.5368 -1.03187
Si -23.2542 52.5837 -1.03221
O -24.0923 56.3147 0.333558
O -26.237 55.2235 -1.032
O -24.0923 56.3148 3.06444
O -22.4057 52.3736 0.337151
O -24.4696 51.5203 -1.04397
O -22.3915 52.3797 3.06799
O 22.7597 -54.5317 1.69596
Si 23.1347 -56.1347 1.69582
Si 21.9256 -53.1179 1.69547
O 19.3495 -55.8417 1.69581
Si 20.144 -57.2835 1.69574
Si 19.0228 -54.233 1.69525
O 19.5656 -58.0183 3.0611
O 21.7891 -57.0989 1.69588
O 19.5658 -58.0182 0.330263
O 18.193 -53.957 3.06441
O 20.3178 -53.2683 1.68383
O 18.1792 -53.9617 0.333518
O 26.9684 -52.5682 -1.03462
Si 27.4672 -54.1371 -1.03483
Si 26.0265 -51.2238 -1.03505
O 23.6708 -54.1402 -1.03488
Si 24.5753 -55.5156 -1.03502
Si 23.2195 -52.5619 -1.03539
O 24.0561 -56.2933 0.330373
O 26.201 -55.2033 -1.03491
O 24.0562 -56.2933 3.06123
O 22.3711 -52.3514 0.333996
O 24.4353 -51.4991 -1.04749
O 22.3568 -52.3575 3.06482
O 31.0111 -50.2826 1.69603
Si 31.6307 -51.8078 1.69589
Si 29.9672 -49.0157 1.69552
O 27.8461 -52.1069 1.69643
Si 28.8552 -53.4076 1.69603
Si 27.2731 -50.5686 1.6958
O 28.3983 -54.2234 3.06147
O 30.4515 -52.9695 1.69597
O 28.3982 -54.2234 0.330625
O 26.4113 -50.4246 3.06545
O 28.4023 -49.4143 1.68296
O 26.3966 -50.4323 0.334581
O 34.8636 -47.6895 -1.0347
Si 35.6003 -49.1617 -1.0349
Si 33.724 -46.5079 -1.03537
O 31.8502 -49.7545 -1.03478
Si 32.9576 -50.9725 -1.03496
Si 31.1589 -48.2656 -1.03534
O 32.5656 -51.8214 0.330455
O 34.515 -50.4116 -1.03485
O 32.5657 -51.8213 3.06128
O 30.2886 -48.189 0.334309
O 32.1949 -47.0269 -1.04826
O 30.2745 -48.1979 3.06518
O -38.531 44.8114 1.69731
Si -39.3817 46.2208 1.69734
Si -37.3017 43.7234 1.69698
O -35.6903 47.1086 1.69802
Si -36.8904 48.2354 1.69778
Si -34.8837 45.6789 1.69746
O -36.5664 49.1128 3.06319
O -38.3986 47.5527 1.6976
O -36.5664 49.1127 0.33238
O -34.0089 45.6723 3.06645
O -35.8185 44.362 1.68665
O -33.9977 45.6807 0.335585
O -41.9301 41.646 -1.03411
Si -42.8883 42.9846 -1.03392
Si -40.6196 40.6573 -1.03434
O -39.2774 44.158 -1.03332
Si -40.5619 45.1876 -1.03353
Si -38.3616 42.7956 -1.03387
O -40.3073 46.0875 0.331886
O -42.0122 44.3893 -1.03364
O -40.3074 46.0874 3.06272
O -37.4887 42.8575 0.335012
O -39.1908 41.4098 -1.0444
O -37.4785 42.8665 3.06588
O -45.0719 38.225 1.69702
Si -46.1316 39.4848 1.69691
Si -43.6882 37.3417 1.6965
O -42.6232 40.9363 1.6971
Si -43.9842 41.8626 1.69693
Si -41.6038 39.6496 1.69652
O -43.8006 42.7796 3.0623
O -45.3677 40.9535 1.69703
O -43.8007 42.7795 0.331446
O -40.7384 39.7796 3.06532
O -42.3224 38.2033 1.68628
O -40.7292 39.7891 0.334455
O -47.9375 34.5697 -1.03347
Si -49.0924 35.7428 -1.03362
Si -46.489 33.7972 -1.03398
O -45.7076 37.4635 -1.03405
Si -47.1367 38.2807 -1.03394
Si -44.5908 36.2604 -1.03436
O -47.0252 39.2092 0.33144
O -48.4453 37.2666 -1.03369
O -47.0253 39.2091 3.06226
O -43.7382 36.4574 0.33445
O -45.1945 34.7626 -1.04472
O -43.7296 36.4676 3.06535
O 41.9034 -41.6426 -1.03376
O 45.0462 -38.2242 1.69713
Si 46.1055 -39.4843 1.69671
Si 43.6629 -37.3404 1.69638
O 42.5963 -40.9342 1.69711
Si 43.9569 -41.8609 1.69673
Si 41.5777 -39.6469 1.69643
O 43.7731 -42.7776 3.06222
O 45.341 -40.9527 1.69668
O 43.773 -42.7777 0.331305
O 40.7147 -39.7735 3.06688
O 42.2968 -38.2012 1.68098
O 40.7008 -39.7877 0.336085
O 47.9113 -34.5695 -1.03368
Si 49.0661 -35.7427 -1.03413
Si 46.4629 -33.7969 -1.03449
O 45.6815 -37.4636 -1.03397
Si 47.1107 -38.2806 -1.03415
Si 44.5652 -36.26 -1.03449
O 46.9991 -39.2091 0.331285
O 48.4192 -37.2665 -1.03411
O 46.9992 -39.2091 3.06212
O 43.715 -36.4536 0.336127
O 45.1687 -34.7623 -1.05034
O 43.7019 -36.4693 3.06701
O 50.4801 -30.7009 1.69736
Si 51.7237 -31.7796 1.697
Si 48.9757 -30.044 1.69667
O 48.4847 -33.7612 1.69676
Si 49.9736 -34.4635 1.69671
Si 47.2775 -32.6488 1.69634
O 49.9353 -35.3979 3.06212
O 51.1984 -33.3496 1.69688
O 49.9355 -35.3978 0.33125
O 46.4454 -32.9085 3.06715
O 47.7613 -31.1082 1.68025
O 46.4333 -32.9255 0.336174
Si 54.0633 -27.6212 -1.0337
Si 51.1878 -26.1065 -1.034
O 50.9888 -29.8498 -1.03345
Si 52.5282 -30.4333 -1.03384
Si 49.698 -28.8356 -1.03418
O 52.5633 -31.3677 0.331644
O 53.6622 -29.2273 -1.03381
O 52.5633 -31.3677 3.06239
O 48.8888 -29.1594 0.336763
O 50.0601 -27.2621 -1.05071
O 48.8778 -29.178 3.06756
O -52.7678 26.6436 -1.0326
O -54.7009 22.4205 1.69847
Si -56.0977 23.2916 1.69814
Si -53.1121 22.0074 1.6978
O -53.2083 25.7551 1.69836
Si -54.7886 26.2162 1.69807
Si -51.8417 24.8455 1.69779
O -54.8967 27.1452 3.06352
O -55.8242 24.9245 1.69811
O -54.8966 27.1453 0.332638
O -51.0591 25.2346 3.06721
O -52.0788 23.2483 1.68572
O -51.0521 25.2487 0.33638
O -56.296 18.0584 -1.03209
Si -57.757 18.8171 -1.03244
Si -54.6797 17.7714 -1.03276
O -55.0701 21.5002 -1.03278
Si -56.6818 21.8356 -1.03271
Si -53.6364 20.7007 -1.03306
O -56.8625 22.7533 0.332684
O -57.6127 20.4664 -1.03251
O -56.8626 22.7532 3.06353
O -52.8868 21.15 0.336369
O -53.7473 19.0898 -1.0451
O -52.8809 21.1646 3.06723
O -57.5423 13.5842 1.69913
Si -59.0584 14.2257 1.69887
Si -55.9085 13.4249 1.69852
O -56.5914 17.1118 1.69835
Si -58.2245 17.3195 1.69842
Si -55.0993 16.4274 1.69808
O -58.477 18.2201 3.06381
O -59.0445 15.8812 1.69869
O -58.4771 18.22 0.332964
O -54.3876 16.9342 3.06763
O -55.0828 14.8127 1.68593
O -54.3828 16.9495 0.336694
Si -59.9962 9.54648 -1.03158
Si -56.7931 8.99532 -1.03178
O -57.7625 12.617 -1.03182
Si -59.4068 12.696 -1.03195
Si -56.2213 12.0519 -1.03233
O -59.7293 13.574 0.333452
O -60.1119 11.198 -1.0318
O -59.7293 13.574 3.06434
O -55.5516 12.613 0.337293
O -56.0786 10.4434 -1.04471
O -55.5479 12.6289 3.06804
O 56.2665 -18.0583 -1.03337
O 57.5125 -13.5852 1.69722
Si 59.0286 -14.2268 1.69663
Si 55.8787 -13.4266 1.69631
O 56.5616 -17.1126 1.69714
Si 58.1947 -17.3203 1.69692
Si 55.0692 -16.4286 1.69657
O 58.4473 -18.2207 3.06237
O 59.0148 -15.8822 1.69675
O 58.4473 -18.2208 0.33157
O 54.3584 -16.9327 3.0675
O 55.0529 -14.8141 1.68003
O 54.3519 -16.9533 0.33667
O 58.4032 -9.02813 -1.03439
Si 59.9651 -9.54837 -1.03464
Si 56.7619 -8.99801 -1.03503
O 57.7325 -12.6194 -1.03417
Si 59.3768 -12.6978 -1.03426
Si 56.1912 -12.0544 -1.03456
O 59.6994 -13.5755 0.331164
O 60.0814 -11.1997 -1.03441
O 59.6995 -13.5755 3.06206
O 55.5221 -12.6128 0.336291
O 56.0479 -10.4462 -1.05076
O 55.5173 -12.6335 3.06711
O 58.9325 -4.41505 1.69607
Si 60.5304 -4.81079 1.69599
Si 57.2938 -4.51322 1.69545
O 58.5462 -8.04777 1.69637
Si 60.1916 -7.99663 1.69618
Si 56.9653 -7.60519 1.69579
O 60.5825 -8.84617 3.06159
O 60.7762 -6.44787 1.69617
O 60.5826 -8.84604 0.330729
O 56.3423 -8.21499 3.06653
O 56.6959 -6.0132 1.6803
O 56.3392 -8.23521 0.335479
Si 60.7248 -0.0436359 -1.03471
Si 57.475 -0.000539553 -1.03499
O 58.9986 -3.42569 -1.03468
Si 60.635 -3.24615 -1.03486
Si 57.3879 -3.10861 -1.03538
O 61.091 -4.06254 0.33053
O 61.0973 -1.6566 -1.03477
O 61.091 -4.06239 3.06138
O 56.8143 -3.76568 0.335112
O 56.9954 -1.54235 -1.05032
O 56.813 -3.78521 3.06576
O -4.82301 58.9726 7.16152
Si -4.68523 60.613 7.1612
Si -4.46551 57.3704 7.16087
O -1.17461 59.1667 7.16148
Si -1.48548 60.7833 7.16117
Si -1.36033 57.5356 7.16081
O -0.708164 61.3035 8.5266
O -3.10753 61.115 7.16119
O -0.708138 61.3035 5.79575
O -0.65784 57.017 8.53073
O -2.88975 57.0176 7.14744
O -0.640259 57.0172 5.79982
O -9.43251 58.4008 4.43068
Si -9.42384 60.047 4.43042
Si -8.95029 56.8316 4.43012
O -5.81068 58.8808 4.43049
Si -6.24741 60.4681 4.43035
Si -5.86765 57.2402 4.43002
O -5.51333 61.0477 5.79574
O -7.89049 60.6713 4.43039
O -5.51335 61.0478 8.52665
O -5.12644 56.7784 5.79989
O -7.35167 56.6036 4.41681
O -5.10909 56.78 8.53071
O -31.0448 50.2994 7.16005
Si -31.6657 51.8241 7.15995
Si -30 49.0332 7.1596
O -27.8809 52.1261 7.16066
Si -28.8909 53.4261 7.16037
Si -27.3069 50.5881 7.16009
O -28.4342 54.2422 8.52581
O -30.487 52.9867 7.16017
O -28.4341 54.2422 5.79497
O -26.4444 50.4451 8.52935
O -28.4355 49.433 7.14861
O -26.4311 50.4521 5.79848
O -34.8952 47.7018 4.42867
Si -35.6332 49.1733 4.42865
Si -33.7547 46.5211 4.42831
O -31.8838 49.7702 4.42927
Si -32.9923 50.9873 4.42907
Si -31.1914 48.2818 4.42875
O -32.6008 51.8366 5.79451
O -34.5492 50.4245 4.42888
O -32.6008 51.8366 8.52535
O -30.3199 48.2068 5.79784
O -32.2261 47.042 4.41767
O -30.3078 48.2145 8.52868
O -50.5088 30.7017 7.15988
Si -51.752 31.7809 7.15947
Si -49.0043 30.0451 7.15923
O -48.512 33.7612 7.15895
Si -50.0007 34.464 7.15895
Si -47.3045 32.6491 7.15856
O -49.9619 35.3983 8.52438
O -51.226 33.3506 7.15923
O -49.962 35.3983 5.79344
O -46.47 32.9115 8.52753
O -47.7892 31.1087 7.14766
O -46.4619 32.923 5.79677
O -58.4344 9.0259 4.4304
Si -54.0919 27.6218 4.4289
Si -51.2164 26.1071 4.42864
O -51.0179 29.8507 4.42871
Si -52.5571 30.4345 4.42864
Si -49.727 28.8367 4.42837
O -52.5918 31.3691 5.7941
O -53.691 29.2281 4.42874
O -52.5918 31.3692 8.52491
O -48.916 29.1633 5.79763
O -50.0889 27.263 4.41667
O -48.9082 29.1763 8.52855
O -58.9659 4.41142 7.16112
Si -60.5636 4.80828 7.16093
Si -57.3273 4.50983 7.16065
O -58.5783 8.04431 7.16142
Si -60.2237 7.99431 7.16099
Si -56.9974 7.60194 7.16078
O -60.614 8.8442 8.52646
O -60.8088 6.44557 7.1609
O -60.614 8.84436 5.79561
O -56.3738 8.21362 8.53051
O -56.7288 6.00963 7.14801
O -56.3714 8.23026 5.7996
O -59.1342 -0.230295 4.43007
Si -60.758 0.0404274 4.42983
Si -57.5083 -0.00395408 4.42941
O -59.0321 3.42161 4.43043
Si -60.6686 3.24318 4.43008
Si -57.4214 3.10457 4.4298
O -61.1244 4.0599 5.79548
O -61.1307 1.65345 4.42996
O -61.1244 4.05998 8.52645
O -56.8478 3.76366 5.79941
O -57.0289 1.53813 4.41725
O -56.8467 3.78007 8.53025
O -58.9402 -4.87078 7.16082
Si -60.5802 -4.72787 7.16058
Si -57.3369 -4.51824 7.1602
O -59.1231 -1.22203 7.16067
Si -60.7407 -1.52795 7.16067
Si -57.4926 -1.41237 7.16025
O -61.2587 -0.749329 8.52606
O -61.0774 -3.14881 7.16068
O -61.2588 -0.749401 5.79526
O -56.9721 -0.71022 8.52972
O -56.9792 -2.94348 7.14809
O -56.9722 -0.694371 5.79885
O -58.3844 -9.48187 4.4299
Si -60.0306 -9.46748 4.42972
Si -56.8135 -9.00534 4.4293
O -58.8518 -5.85861 4.42974
Si -60.4405 -6.28998 4.42972
Si -57.2114 -5.92115 4.42934
O -61.0178 -5.55425 5.79512
O -60.6496 -7.93215 4.4298
O -61.0178 -5.55436 8.52599
O -56.7472 -5.18055 5.79882
O -56.5799 -7.40745 4.41709
O -56.7486 -5.16471 8.52966
O -57.4715 -14.0357 7.16125
Si -59.1137 -14.1499 7.16095
Si -55.9425 -13.4381 7.16067
O -58.2193 -10.4599 7.16055
Si -59.7695 -11.0139 7.16057
Si -56.579 -10.3942 7.16014
O -60.4024 -10.3254 8.52596
O -59.8503 -12.6674 7.1608