2880
 Atoms. Timestep: 15205
O 35.5585 4.27405 3.60679
Si 37.1282 4.74495 3.44227
Si 33.9192 4.35654 3.6268
O 35.7716 1.78931 3.07822
Si 37.4044 1.5943 3.14902
Si 34.178 1.41635 2.95015
O 37.867 0.670736 4.44354
O 37.799 3.21708 3.28902
O 37.856 0.815268 1.76051
O 33.7913 0.388576 4.13794
O 33.4874 2.83945 3.27986
O 33.7923 0.937098 1.45348
O 34.6615 8.88896 0.570468
Si 36.1716 9.54147 0.537707
Si 33.0419 8.73524 0.345206
O 35.2174 6.39882 0.741786
Si 36.862 6.44644 0.749707
Si 33.6872 5.83487 0.935114
O 37.401 5.73072 2.14034
O 37.0362 8.10976 0.642546
O 37.4627 5.60677 26.2731
O 33.389 5.3139 2.43701
O 32.8154 7.16264 0.639208
O 33.4132 4.77667 -0.257676
O 33.2035 13.2875 3.76525
Si 34.587 14.1556 3.55131
Si 31.604 12.9227 3.75582
O 34.0718 10.9438 3.00655
Si 35.6873 11.1948 3.20587
Si 32.6246 10.1706 3.01401
O 36.3491 10.412 4.5062
O 35.6364 12.8611 3.37579
O 36.3631 10.5611 1.83085
O 32.5688 9.07334 4.19988
O 31.5889 11.3517 3.38545
O 32.3368 9.57472 1.53591
O 31.0686 17.515 0.375629
Si 32.3625 18.5109 0.600309
Si 29.5526 16.8954 0.498996
O 32.3038 15.2249 0.819162
Si 33.8705 15.7224 0.853994
Si 30.9818 14.2828 1.06
O 34.5703 15.184 2.25313
O 33.5789 17.3684 0.737506
O 34.6855 15.0752 -0.436399
O 30.8477 13.7176 2.56922
O 29.7787 15.3241 0.784378
O 30.9921 13.188 -0.132116
O 28.4167 21.477 3.47126
Si 29.6241 22.5792 3.29989
Si 27.0219 20.6552 3.20294
O 30.0102 19.2058 3.473
Si 31.4543 19.9723 3.30129
Si 28.7634 18.1719 3.20849
O 32.3449 19.4773 4.6132
O 30.9601 21.5712 3.29899
O 32.2325 19.4936 1.92415
O 28.8254 17.1203 4.43466
O 27.4574 19.1086 3.35504
O 28.7147 17.5242 1.72813
O 25.4606 24.9706 0.876114
Si 26.442 26.2902 0.867248
Si 24.1167 24.0522 1.08111
O 27.1811 23.0506 0.373077
Si 28.5568 23.9299 0.598845
Si 26.0892 21.8295 0.493739
O 29.438 23.472 1.9216
O 27.8936 25.4614 0.739832
O 29.459 23.5862 26.0664
O 26.4061 20.825 1.7179
O 24.688 22.5694 0.793951
O 26.0515 21.0759 25.8813
O 21.9563 28.1186 3.00296
Si 22.7826 29.5257 3.23584
Si 20.7718 26.9871 3.12044
O 23.9178 26.483 3.7469
Si 25.2055 27.4911 3.56007
Si 23.0448 25.0955 3.77325
O 26.0976 27.2702 4.93958
O 24.3339 28.9129 3.3902
O 26.1729 27.1373 2.26305
O 23.0956 24.4391 5.25204
O 21.5536 25.6127 3.43791
O 23.5202 24.1112 2.58305
O 18.0084 30.8127 0.757969
Si 18.7237 32.2825 0.583329
Si 17.0233 29.5278 0.489262
O 20.3363 29.3003 0.742222
Si 21.3949 30.546 0.573115
Si 19.5669 27.8774 0.466206
O 22.4108 30.4132 1.88117
O 20.3394 31.8452 0.578331
O 22.2883 30.393 26.0106
O 20.0289 26.9194 1.68397
O 18.0069 28.2564 0.630486
O 19.753 27.2809 25.7946
O 13.9551 32.9568 3.48251
Si 14.3867 34.5431 3.50781
Si 13.0607 31.6014 3.71818
O 16.2839 31.8074 3.01715
Si 17.2293 33.1381 3.24626
Si 15.7203 30.2698 3.14322
O 18.2164 33.0424 4.57
O 16.0427 34.3119 3.38677
O 18.1967 33.1555 1.89527
O 16.3807 29.4563 4.37176
O 14.1431 30.4375 3.43443
O 15.97 29.5504 1.71523
O 9.61007 34.5565 0.318121
Si 9.78765 36.1834 0.502403
Si 8.89208 33.0813 0.304725
O 11.9771 33.7837 1.04962
Si 12.7918 35.2 0.840618
Si 11.6799 32.1702 1.04932
O 13.7071 35.3313 2.21722
O 11.4561 36.1985 0.668198
O 13.8208 35.2236 -0.457694
O 11.9648 31.5745 2.52782
O 10.1115 32.0917 0.676983
O 12.5045 31.4441 -0.135625
O 5.01545 35.5105 3.39974
Si 4.98987 37.1555 3.41822
Si 4.52608 33.9578 3.61609
O 7.5183 35.0657 3.20939
Si 8.11316 36.5997 3.1963
Si 7.44379 33.4389 2.99788
O 9.12473 36.828 4.48997
O 6.6448 37.4018 3.3077
O 8.97865 36.8153 1.80235
O 8.31987 32.7757 4.1854
O 5.88638 33.1431 3.30782
O 7.7959 32.978 1.48825
O 0.392579 35.8464 0.201377
Si 0.116372 37.4569 0.40858
Si 0.113275 34.2297 0.198812
O 2.88101 35.7545 0.938602
Si 3.27483 37.3424 0.748926
Si 3.04352 34.1218 0.945864
O 4.11964 37.7202 2.12479
O 1.71452 37.9327 0.581884
O 4.25244 37.6553 26.2685
O 3.47579 33.6354 2.42826
O 1.55787 33.6144 0.571545
O 4.03726 33.6481 -0.237732
O -4.32735 35.4806 3.5989
Si -4.75909 37.0549 3.37104
Si -4.33318 33.8427 3.47746
O -1.75136 35.754 3.12694
Si -1.60697 37.3917 3.10507
Si -1.3791 34.1729 2.89358
O -0.695894 37.8958 4.39514
O -3.24057 37.7472 3.22843
O -0.84183 37.8351 1.70616
O -0.358935 33.7704 4.08351
O -2.79636 33.4544 3.18023
O -0.911553 33.8325 1.3835
O -9.00201 34.5223 0.499879
Si -9.56237 36.0583 0.670362
Si -8.76869 32.9197 0.765622
O -6.29751 35.1407 0.499592
Si -6.45682 36.7678 0.670175
Si -5.81223 33.5962 0.768048
O -5.72029 37.3055 2.0485
O -8.12415 36.9143 0.671564
O -5.65954 37.4045 26.1786
O -5.23943 33.3088 2.25213
O -7.1718 32.7399 0.617381
O -4.81113 33.2574 -0.455254
O -13.373 33.1005 3.15714
Si -14.2035 34.5188 3.11754
Si -13.0185 31.5172 2.91051
O -10.9209 33.9756 3.59767
Si -11.2161 35.5812 3.37135
Si -10.2088 32.5007 3.47507
O -10.5559 36.2869 4.7227
O -12.8847 35.5465 3.23343
O -10.4605 36.2239 2.04784
O -9.52037 32.1804 4.90422
O -11.4281 31.4851 3.18739
O -9.16434 32.4077 2.24698
O -17.5471 31.1004 0.990759
Si -18.5812 32.3636 0.771385
Si -16.9828 29.56 0.975542
O -15.3352 32.2627 0.200816
Si -15.7847 33.8322 0.419558
Si -14.3891 30.9225 0.214387
O -15.0836 34.5852 1.7179
O -17.4305 33.5693 0.595548
O -15.2428 34.5834 25.8635
O -13.2938 31.013 1.39901
O -15.4253 29.7453 0.595391
O -13.7592 30.7089 25.5571
O -21.4634 28.4403 2.95686
Si -22.615 29.5974 3.18334
Si -20.6569 27.0148 3.07952
O -19.35 29.9618 3.39603
Si -20.0437 31.4519 3.43718
Si -18.2507 28.7686 3.64306
O -19.5989 32.2138 4.83692
O -21.6385 30.9506 3.32131
O -19.5071 32.3443 2.14711
O -17.6787 28.7097 5.15442
O -19.1282 27.4414 3.36661
O -17.1651 28.9185 2.45163
O -25.0538 25.3001 0.694194
Si -26.2977 26.3612 0.522751
Si -24.0611 24.0201 0.430754
O -23.0063 27.1729 0.690098
Si -23.9476 28.5098 0.520466
Si -21.8221 26.0679 0.424957
O -23.5706 29.4566 1.832
O -25.4698 27.8151 0.519882
O -23.5733 29.3421 25.9624
O -20.7866 26.2655 1.65072
O -22.5826 24.6518 0.573182
O -21.1744 26.103 25.7637
O -28.1601 21.9145 3.40738
Si -29.5808 22.7414 3.44009
Si -27.0759 20.705 3.64188
O -26.4544 23.8798 2.96163
Si -27.5012 25.133 3.18577
Si -25.11 22.9443 3.08534
O -27.161 26.0637 4.5096
O -28.9374 24.2839 3.32303
O -27.2743 26.072 1.83465
O -24.156 23.3734 4.31598
O -25.6744 21.4597 3.36802
O -24.3487 23.0078 1.65827
O -30.8244 18.1264 0.25569
Si -32.3481 18.7244 0.436592
Si -29.5858 17.0501 0.243491
O -29.4622 20.2189 0.979793
Si -30.6222 21.3701 0.773187
Si -27.9813 19.5124 0.97332
O -30.5166 22.2883 2.14934
O -31.9316 20.339 0.601869
O -30.3825 22.3697 26.2943
O -27.3252 19.6399 2.44875
O -28.3136 17.9752 0.608334
O -27.0684 20.1187 -0.214718
O -32.943 13.9673 3.46919
Si -34.5397 14.3569 3.3764
Si -31.5772 13.0609 3.55806
O -31.8616 16.2425 3.1422
Si -33.1855 17.2199 3.13033
Si -30.311 15.7414 2.93621
O -33.1416 18.256 4.42301
O -34.3455 16.0162 3.24567
O -33.1701 18.1093 1.73558
O -29.4422 16.4109 4.12639
O -30.4357 14.1587 3.23828
O -29.7669 15.9662 1.42956
O -34.511 9.54755 0.452964
Si -36.1452 9.7415 0.452536
Si -33.0391 8.84463 0.260349
O -33.7417 11.946 0.754779
Si -35.1733 12.7559 0.692563
Si -32.1281 11.6679 0.874313
O -35.288 13.6572 2.07572
O -36.1677 11.4128 0.568614
O -35.2475 13.7794 26.2125
O -31.5771 11.9689 2.36555
O -32.047 10.0845 0.561625
O -31.373 12.4566 -0.318619
O -35.4909 5.00082 3.63523
Si -37.1272 4.96407 3.44985
Si -33.9301 4.49352 3.63572
O -35.0469 7.45957 2.95623
Si -36.566 8.07282 3.12422
Si -33.4074 7.39293 2.93265
O -36.7463 9.08321 4.42314
O -37.3718 6.6131 3.2863
O -36.8204 8.95644 1.74602
O -32.7912 8.29943 4.12146
O -33.1167 5.84325 3.28265
O -32.8669 7.76349 1.45197
O -35.8363 0.319898 0.566269
Si -37.465 0.0874991 0.545654
Si -34.2324 0.0338771 0.358792
O -35.7164 2.87239 0.729171
Si -37.3167 3.25389 0.755238
Si -34.0932 3.00468 0.941541
O -37.6453 4.08122 2.14899
O -37.9223 1.69557 0.65091
O -37.6807 4.22283 26.2806
O -33.6762 3.42839 2.44601
O -33.6014 1.4929 0.650527
O -33.5454 3.9509 -0.251668
O -35.5977 -4.31656 3.72081
Si -37.1677 -4.78046 3.54127
Si -33.9588 -4.40048 3.72803
O -35.81 -1.82394 3.03475
Si -37.4358 -1.63288 3.21561
Si -34.2089 -1.46393 3.02902
O -37.8704 -0.70588 4.5163
O -37.8332 -3.25192 3.37862
O -37.9166 -0.84343 1.84013
O -33.8546 -0.428392 4.21922
O -33.5251 -2.88461 3.37856
O -33.7768 -0.959746 1.55207
O -34.7118 -8.9277 0.658983
Si -36.2237 -9.57659 0.63633
Si -33.0892 -8.78441 0.449279
O -35.2607 -6.43485 0.828739
Si -36.9053 -6.48096 0.847455
Si -33.7285 -5.88054 1.03453
O -37.4396 -5.76751 2.24056
O -37.0843 -8.14322 0.741543
O -37.5076 -5.63975 -0.447084
O -33.4339 -5.36098 2.5379
O -32.8598 -7.21157 0.741763
O -33.4483 -4.82388 -0.158622
O -33.2754 -13.3385 3.80883
Si -34.6682 -14.1995 3.63263
Si -31.6714 -12.9926 3.82384
O -34.1284 -10.9895 3.12274
Si -35.7473 -11.2303 3.30599
Si -32.6767 -10.224 3.11929
O -36.4079 -10.4481 4.60676
O -35.7092 -12.8971 3.4693
O -36.4176 -10.5932 1.9307
O -32.6059 -9.13119 4.30888
O -31.6468 -11.4166 3.47214
O -32.3901 -9.62526 1.64223
O -31.2211 -17.5452 0.696759
Si -32.5001 -18.5807 0.714451
Si -29.6847 -16.9904 0.530869
O -32.3941 -15.3003 0.929576
Si -33.9702 -15.7731 0.939408
Si -31.0625 -14.3602 1.13116
O -34.6728 -15.225 2.33294
O -33.7077 -17.4243 0.82787
O -34.7704 -15.116 -0.354408
O -30.9127 -13.7834 2.63504
O -29.8745 -15.4144 0.833236
O -31.0726 -13.2658 -0.0606696
O -28.6454 -21.4484 3.64039
Si -29.7803 -22.64 3.64943
Si -27.204 -20.6894 3.8484
O -30.1003 -19.3949 3.25021
Si -31.604 -20.0513 3.38873
Si -28.9068 -18.2691 3.2059
O -32.4526 -19.481 4.69101
O -31.1291 -21.6522 3.53044
O -32.4107 -19.6063 2.01224
O -29.109 -17.195 4.39702
O -27.5968 -19.1526 3.54024
O -28.7975 -17.6273 1.72395
O -25.5948 -24.9493 0.426926
Si -26.5367 -26.2842 0.638082
Si -24.2595 -23.9958 0.436165
O -27.2975 -23.1272 1.16231
Si -28.6955 -23.9781 0.979238
Si -26.2649 -21.8521 1.177
O -29.5572 -23.6539 2.35745
O -28.0052 -25.4959 0.811446
O -29.6122 -23.5123 -0.318853
O -26.2324 -21.202 2.65975
O -24.8524 -22.5408 0.806587
O -26.6335 -20.815 -0.00723925
O -21.9921 -28.0298 3.81416
Si -22.8054 -29.4455 3.58824
Si -20.834 -26.872 3.68724
O -24.0177 -26.3904 3.37098
Si -25.2715 -27.4534 3.33544
Si -23.1611 -25.0113 3.1319
O -26.2727 -27.1708 4.62602
O -24.368 -28.8597 3.45166
O -26.1251 -27.2266 1.9365
O -23.5923 -24.0052 4.32426
O -21.6495 -25.5089 3.40657
O -23.2552 -24.437 1.62306
O -18.0254 -30.6669 0.728109
Si -18.7145 -32.1494 0.897244
Si -17.0542 -29.3737 1.00559
O -20.3704 -29.1795 0.712574
Si -21.4053 -30.445 0.887167
Si -19.6141 -27.7471 0.977382
O -22.3082 -30.302 2.2638
O -20.3351 -31.7314 0.892003
O -22.4174 -30.3317 -0.425198
O -19.8214 -27.1253 2.455
O -18.0481 -28.1128 0.840591
O -20.0706 -26.8011 -0.251368
O -13.9715 -32.7489 3.07172
Si -14.3505 -34.3388 3.26785
Si -13.077 -31.3751 3.05466
O -16.2759 -31.6469 3.83384
Si -17.209 -32.985 3.59845
Si -15.7424 -30.0983 3.71529
O -18.1703 -33.0177 4.95335
O -16.0056 -34.1394 3.44165
O -18.2037 -32.8968 2.2798
O -15.9898 -29.3952 5.15228
O -14.168 -30.2358 3.39405
O -16.4364 -29.295 2.49775
O -9.49036 -34.2809 1.08636
Si -9.71528 -35.8982 0.861271
Si -8.83707 -32.7788 0.96535
O -11.9576 -33.5166 0.598417
Si -12.7432 -34.9611 0.597699
Si -11.6814 -31.9135 0.383916
O -13.778 -35.0596 1.88896
O -11.384 -35.9342 0.722095
O -13.6236 -35.0686 26.0205
O -12.457 -31.1448 1.5771
O -10.0949 -31.8142 0.667695
O -11.9839 -31.4 25.7003
O -4.81677 -35.2484 3.35097
Si -4.90972 -36.8807 3.52255
Si -4.39773 -33.6842 3.61701
O -7.54572 -34.7475 3.35272
Si -8.04259 -36.3049 3.52408
Si -7.38085 -33.1368 3.62006
O -8.93235 -36.5081 4.90198
O -6.56908 -37.0986 3.52489
O -9.02606 -36.575 2.21282
O -7.79328 -32.6465 5.10419
O -5.79352 -32.8877 3.46898
O -8.16682 -32.4302 2.39673
O -0.244065 -35.6698 0.633889
Si -0.0387365 -37.3008 0.60218
Si 0.0602556 -34.075 0.394861
O -2.83761 -35.5046 1.0853
Si -3.20228 -37.096 0.859534
Si -2.90892 -33.8683 0.962555
O -4.08752 -37.4834 2.21092
O -1.65601 -37.7239 0.720637
O -4.15037 -37.3877 -0.463894
O -3.41482 -33.3021 2.39181
O -1.38772 -33.4169 0.673594
O -3.83228 -33.3706 -0.26532
O 4.38033 -35.483 3.80048
Si 4.83458 -37.0547 3.61203
Si 4.48011 -33.8452 3.8096
O 1.89504 -35.6757 3.05739
Si 1.68464 -37.2957 3.26896
Si 1.55513 -34.0706 3.06335
O 0.743269 -37.7114 4.56697
O 3.29994 -37.707 3.44344
O 0.890656 -37.7694 1.8925
O 0.515611 -33.7168 4.24905
O 2.97444 -33.3984 3.43638
O 1.06045 -33.6276 1.58615
O 8.96598 -34.6211 0.573187
Si 9.63359 -36.1226 0.67021
Si 8.84999 -32.986 0.485919
O 6.50518 -35.1552 0.902697
Si 6.53897 -36.8004 0.917704
Si 5.9573 -33.6216 1.11635
O 5.82478 -37.3291 2.3133
O 8.2011 -36.9829 0.801996
O 5.69048 -37.3986 -0.374511
O 5.45368 -33.3314 2.62566
O 7.28489 -32.7528 0.810478
O 4.89506 -33.3418 -0.0722321
O 13.4193 -33.1541 3.59663
Si 14.2669 -34.5647 3.59476
Si 13.0752 -31.5596 3.78829
O 11.0544 -34.0156 3.29419
Si 11.2886 -35.6437 3.35439
Si 10.2874 -32.5694 3.17001
O 10.5244 -36.3293 4.65399
O 12.9596 -35.6066 3.47812
O 10.6451 -36.2853 1.97109
O 9.20056 -32.4553 4.36191
O 11.4881 -31.5349 3.48458
O 9.71625 -32.3193 1.67716
O 17.6117 -31.1378 0.40977
Si 18.6425 -32.4089 0.596237
Si 17.0563 -29.5934 0.410328
O 15.3991 -32.2968 1.08961
Si 15.8436 -33.8737 0.922835
Si 14.4472 -30.9605 1.1157
O 15.3012 -34.6161 2.30122
O 17.4907 -33.614 0.760327
O 15.1558 -34.636 -0.375934
O 13.8254 -30.7613 2.59738
O 15.4917 -29.7798 0.764163
O 13.3525 -31.0301 -0.0723877
O 21.5189 -28.5407 3.48661
Si 22.7009 -29.6853 3.5005
Si 20.765 -27.0947 3.68151
O 19.4311 -30.0107 3.31739
Si 20.1093 -31.5096 3.29088
Si 18.3325 -28.8085 3.10461
O 19.5674 -32.3916 4.58504
O 21.7115 -31.0327 3.39508
O 19.6576 -32.2764 1.89702
O 17.2494 -28.9555 4.29823
O 19.2252 -27.4921 3.39242
O 17.7416 -28.7398 1.60027
O 25.0372 -25.5157 0.418704
Si 26.3717 -26.4736 0.527316
Si 24.1129 -24.1618 0.335495
O 23.1996 -27.2042 0.996131
Si 24.0425 -28.6094 0.829576
Si 21.9353 -26.1573 1.0099
O 23.7109 -29.4715 2.20479
O 25.5681 -27.9359 0.674829
O 23.5795 -29.5209 -0.472085
O 21.2716 -26.1279 2.48675
O 22.6433 -24.746 0.66792
O 20.8994 -26.5048 -0.182056
O 28.1465 -22.0208 3.67306
Si 29.5855 -22.8036 3.50092
Si 27.0429 -20.8055 3.67831
O 26.5378 -23.9401 3.15268
Si 27.5587 -25.2297 3.21227
Si 25.1478 -23.0766 3.02022
O 27.2403 -26.2113 4.507
O 28.9829 -24.3585 3.34823
O 27.3308 -26.0994 1.82357
O 24.1491 -23.5266 4.21085
O 25.6655 -21.5791 3.33974
O 24.5323 -23.1493 1.52524
O 30.7788 -18.1394 0.601881
Si 32.3079 -18.7472 0.597768
Si 29.5332 -17.0844 0.421722
O 29.4025 -20.287 0.785186
Si 30.5996 -21.4158 0.80697
Si 27.9273 -19.5933 0.985271
O 30.4738 -22.3003 2.1984
O 31.9023 -20.3686 0.703366
O 30.4338 -22.4344 -0.488852
O 27.3424 -19.7569 2.48467
O 28.2574 -18.0358 0.704811
O 26.9833 -20.1374 -0.211481
O 32.9041 -13.9869 3.54523
Si 34.5003 -14.387 3.5363
Si 31.5361 -13.0972 3.72878
O 31.8302 -16.263 3.11778
Si 33.1435 -17.2449 3.26992
Si 30.2636 -15.7733 3.09475
O 33.0639 -18.2618 4.57325
O 34.3038 -16.0459 3.41379
O 33.1591 -18.1685 1.89537
O 29.4324 -16.4773 4.28953
O 30.391 -14.1968 3.42426
O 29.6373 -16.0009 1.61899
O 34.4705 -9.60352 0.359563
Si 36.098 -9.78096 0.540893
Si 32.9892 -8.89663 0.357448
O 33.7079 -11.9821 1.0226
Si 35.1345 -12.7889 0.863596
Si 32.0907 -11.7045 1.05526
O 35.2705 -13.6949 2.24341
O 36.1248 -11.4476 0.702923
O 35.1833 -13.8153 -0.434108
O 31.5097 -12.0024 2.53718
O 32.0057 -10.1292 0.707607
O 31.3592 -12.5212 -0.133563
O 35.4338 -5.00767 3.41929
Si 37.079 -4.99296 3.44256
Si 33.8813 -4.51342 3.62583
O 34.9751 -7.52273 3.2599
Si 36.5113 -8.11142 3.23523
Si 33.348 -7.44125 3.05124
O 36.7439 -9.11935 4.52972
O 37.3186 -6.64754 3.33915
O 36.7286 -8.97509 1.84186
O 32.6802 -8.30564 4.24551
O 33.0619 -5.87658 3.3381
O 32.8757 -7.80874 1.5483
O 35.8157 -0.390892 0.360349
Si 37.4373 -0.127159 0.464972
Si 34.207 -0.0801385 0.266377
O 35.6926 -2.88095 0.951353
Si 37.2797 -3.28403 0.772746
Si 34.0575 -3.02555 0.955457
O 37.6508 -4.13183 2.1474
O 37.8924 -1.73304 0.614025
O 37.587 -4.25949 26.2907
O 33.561 -3.46905 2.43176
O 33.5704 -1.52601 0.605186
O 33.5682 -4.00396 -0.235061
O 35.5585 4.27405 8.97071
Si 37.1283 4.74494 8.80619
Si 33.9192 4.35653 8.99071
O 35.7716 1.78931 8.44213
Si 37.4044 1.5943 8.51293
Si 34.178 1.41634 8.31406
O 37.867 0.670745 9.80744
O 37.799 3.21707 8.65294
O 37.856 0.81527 7.12443
O 33.7913 0.388583 9.50185
O 33.4874 2.83944 8.64377
O 33.7923 0.937098 6.8174
O 34.6615 8.88895 5.93439
Si 36.1716 9.54147 5.9016
Si 33.0419 8.73524 5.7091
O 35.2174 6.39882 6.1057
Si 36.862 6.44644 6.1136
Si 33.6872 5.83486 6.29902
O 37.401 5.73074 7.50425
O 37.0362 8.10975 6.00647
O 37.4627 5.60677 4.81744
O 33.389 5.31391 7.80092
O 32.8154 7.16264 6.00313
O 33.4132 4.77667 5.10623
O 33.2035 13.2875 9.12916
Si 34.5869 14.1556 8.91524
Si 31.604 12.9227 9.11975
O 34.0718 10.9438 8.37046
Si 35.6873 11.1948 8.5698
Si 32.6246 10.1706 8.37794
O 36.3491 10.412 9.87013
O 35.6364 12.8611 8.73971
O 36.3631 10.5611 7.19476
O 32.5688 9.07332 9.56381
O 31.5889 11.3517 8.74937
O 32.3368 9.57472 6.89982
O 31.0686 17.515 5.73954
Si 32.3625 18.5109 5.96424
Si 29.5526 16.8954 5.86293
O 32.3038 15.2249 6.18308
Si 33.8705 15.7224 6.21793
Si 30.9818 14.2828 6.42393
O 34.5703 15.184 7.61706
O 33.5789 17.3684 6.10141
O 34.6855 15.0753 4.92752
O 30.8477 13.7176 7.93314
O 29.7787 15.3241 6.14829
O 30.9921 13.188 5.23181
O 28.4167 21.477 8.83518
Si 29.6241 22.5792 8.66379
Si 27.0219 20.6552 8.56685
O 30.0102 19.2058 8.83691
Si 31.4543 19.9723 8.6652
Si 28.7634 18.1719 8.5724
O 32.3449 19.4773 9.9771
O 30.9601 21.5712 8.66292
O 32.2325 19.4937 7.28808
O 28.8254 17.1203 9.79857
O 27.4574 19.1086 8.71896
O 28.7147 17.5242 7.09205
O 25.4606 24.9706 6.24003
Si 26.442 26.2902 6.23116
Si 24.1167 24.0522 6.44502
O 27.1811 23.0506 5.737
Si 28.5568 23.9299 5.96276
Si 26.0892 21.8295 5.85765
O 29.438 23.4721 7.28551
O 27.8936 25.4614 6.10375
O 29.459 23.5862 4.61077
O 26.4061 20.825 7.08182
O 24.688 22.5694 6.15787
O 26.0515 21.0759 4.42567
O 21.9563 28.1186 8.36687
Si 22.7826 29.5257 8.59978
Si 20.7718 26.9871 8.48437
O 23.9178 26.483 9.11081
Si 25.2055 27.4911 8.924
Si 23.0448 25.0955 9.13718
O 26.0976 27.2702 10.3035
O 24.3339 28.9129 8.75411
O 26.1729 27.1373 7.62696
O 23.0956 24.4391 10.616
O 21.5536 25.6127 8.80182
O 23.5202 24.1112 7.94697
O 18.0084 30.8127 6.12188
Si 18.7237 32.2825 5.94724
Si 17.0233 29.5278 5.85318
O 20.3363 29.3003 6.10615
Si 21.3949 30.546 5.93702
Si 19.5669 27.8774 5.83011
O 22.4108 30.4132 7.24509
O 20.3394 31.8452 5.94225
O 22.2883 30.3929 4.55496
O 20.0289 26.9194 7.04788
O 18.0069 28.2564 5.99441
O 19.753 27.2809 4.3389
O 13.9551 32.9568 8.84642
Si 14.3867 34.5431 8.8717
Si 13.0607 31.6014 9.08208
O 16.2839 31.8074 8.38107
Si 17.2293 33.1381 8.61016
Si 15.7203 30.2698 8.50712
O 18.2164 33.0424 9.93391
O 16.0427 34.3119 8.7507
O 18.1967 33.1554 7.25918
O 16.3807 29.4563 9.73567
O 14.1431 30.4376 8.79835
O 15.97 29.5504 7.07914
O 9.61007 34.5565 5.68204
Si 9.78766 36.1834 5.86631
Si 8.89208 33.0813 5.66864
O 11.9771 33.7837 6.41353
Si 12.7918 35.2 6.20455
Si 11.6799 32.1702 6.41324
O 13.7071 35.3313 7.58113
O 11.4561 36.1985 6.03212
O 13.8208 35.2236 4.90624
O 11.9648 31.5745 7.89173
O 10.1116 32.0917 6.0409
O 12.5045 31.4441 5.22831
O 5.01544 35.5105 8.76366
Si 4.98987 37.1555 8.78215
Si 4.52608 33.9578 8.98002
O 7.5183 35.0657 8.5733
Si 8.11316 36.5997 8.56023
Si 7.44379 33.4389 8.36181
O 9.12474 36.8279 9.8539
O 6.64479 37.4018 8.6716
O 8.97864 36.8153 7.16627
O 8.31988 32.7756 9.54933
O 5.88637 33.1431 8.67173
O 7.7959 32.978 6.85217
O 0.392577 35.8464 5.56529
Si 0.116364 37.4569 5.77251
Si 0.113268 34.2297 5.56273
O 2.88101 35.7545 6.30252
Si 3.27482 37.3424 6.11285
Si 3.04352 34.1218 6.30979
O 4.11966 37.7202 7.48872
O 1.7145 37.9327 5.94579
O 4.25244 37.6553 4.81285
O 3.4758 33.6354 7.79218
O 1.55786 33.6144 5.93545
O 4.03727 33.6481 5.12618
O -4.32735 35.4806 8.96282
Si -4.75909 37.0549 8.73494
Si -4.33317 33.8427 8.84136
O -1.75136 35.754 8.49086
Si -1.60697 37.3917 8.46897
Si -1.3791 34.1729 8.25749
O -0.695906 37.8958 9.75904
O -3.24055 37.7472 8.59235
O -0.841826 37.8351 7.07007
O -0.358942 33.7704 9.44742
O -2.79635 33.4544 8.54415
O -0.911548 33.8325 6.74742
O -9.00201 34.5223 5.8638
Si -9.56236 36.0583 6.03427
Si -8.76869 32.9197 6.12953
O -6.29751 35.1407 5.86351
Si -6.45682 36.7678 6.03408
Si -5.81223 33.5962 6.13196
O -5.7203 37.3055 7.4124
O -8.12414 36.9143 6.03549
O -5.65954 37.4045 4.72294
O -5.23944 33.3088 7.61604
O -7.17179 32.7399 5.9813
O -4.81113 33.2573 4.90866
O -13.373 33.1005 8.52106
Si -14.2035 34.5188 8.48148
Si -13.0185 31.5172 8.27443
O -10.9209 33.9756 8.96158
Si -11.2161 35.5812 8.73528
Si -10.2088 32.5007 8.83899
O -10.5559 36.2869 10.0866
O -12.8847 35.5465 8.59734
O -10.4605 36.2239 7.41176
O -9.52036 32.1804 10.2681
O -11.4282 31.4851 8.5513
O -9.16433 32.4077 7.6109
O -17.5471 31.1004 6.35468
Si -18.5812 32.3635 6.13529
Si -16.9828 29.56 6.33946
O -15.3352 32.2627 5.56473
Si -15.7847 33.8323 5.78347
Si -14.3891 30.9225 5.5783
O -15.0836 34.5852 7.08182
O -17.4306 33.5693 5.95947
O -15.2428 34.5834 4.40781
O -13.2938 31.013 6.76293
O -15.4253 29.7453 5.95931
O -13.7592 30.7089 4.10146
O -21.4634 28.4403 8.32078
Si -22.615 29.5974 8.54724
Si -20.657 27.0148 8.44342
O -19.35 29.9618 8.75994
Si -20.0437 31.4519 8.80108
Si -18.2507 28.7686 9.00697
O -19.5989 32.2138 10.2008
O -21.6385 30.9506 8.68524
O -19.5071 32.3443 7.51102
O -17.6787 28.7097 10.5183
O -19.1282 27.4414 8.73053
O -17.1651 28.9185 7.81555
O -25.0538 25.3001 6.05811
Si -26.2977 26.3612 5.88668
Si -24.0611 24.0201 5.79468
O -23.0062 27.1729 6.05401
Si -23.9476 28.5098 5.8844
Si -21.8221 26.068 5.78889
O -23.5706 29.4566 7.19592
O -25.4697 27.8151 5.88379
O -23.5733 29.3421 4.50676
O -20.7866 26.2655 7.01464
O -22.5826 24.6518 5.93709
O -21.1744 26.103 4.30808
O -28.1601 21.9145 8.7713
Si -29.5808 22.7414 8.80401
Si -27.0759 20.705 9.0058
O -26.4544 23.8798 8.32555
Si -27.5012 25.133 8.54969
Si -25.11 22.9443 8.44926
O -27.161 26.0637 9.8735
O -28.9374 24.2839 8.68695
O -27.2743 26.072 7.19858
O -24.156 23.3734 9.67989
O -25.6744 21.4597 8.73193
O -24.3487 23.0078 7.02219
O -30.8244 18.1264 5.61961
Si -32.3481 18.7244 5.80051
Si -29.5858 17.05 5.6074
O -29.4622 20.2189 6.34371
Si -30.6222 21.3701 6.13709
Si -27.9813 19.5124 6.33723
O -30.5166 22.2883 7.51326
O -31.9316 20.339 5.96579
O -30.3825 22.3698 4.83862
O -27.3252 19.6399 7.81268
O -28.3136 17.9752 5.97225
O -27.0684 20.1187 5.14919
O -32.943 13.9673 8.83311
Si -34.5397 14.3569 8.74032
Si -31.5772 13.0609 8.92198
O -31.8616 16.2425 8.50611
Si -33.1855 17.22 8.49425
Si -30.311 15.7415 8.30012
O -33.1416 18.256 9.78693
O -34.3455 16.0162 8.60959
O -33.1701 18.1093 7.0995
O -29.4422 16.4109 9.49032
O -30.4357 14.1587 8.60219
O -29.7669 15.9662 6.79348
O -34.511 9.54755 5.81688
Si -36.1452 9.74151 5.81645
Si -33.0391 8.84464 5.62427
O -33.7417 11.946 6.1187
Si -35.1733 12.7559 6.05646
Si -32.1281 11.6679 6.23822
O -35.288 13.6572 7.43962
O -36.1677 11.4128 5.93254
O -35.2475 13.7794 4.75682
O -31.5771 11.9689 7.72945
O -32.047 10.0845 5.92555
O -31.373 12.4566 5.04529
O -35.4909 5.0008 8.99914
Si -37.1271 4.96407 8.81378
Si -33.9301 4.49353 8.99965
O -35.0469 7.45957 8.32014
Si -36.566 8.0728 8.48813
Si -33.4074 7.39291 8.29657
O -36.7463 9.08322 9.78705
O -37.3718 6.61307 8.65021
O -36.8204 8.95644 7.10993
O -32.7912 8.29943 9.48537
O -33.1167 5.84323 8.64656
O -32.8669 7.7635 6.81589
O -35.8363 0.319899 5.93018
Si -37.465 0.087482 5.90958
Si -34.2324 0.0338606 5.72271
O -35.7164 2.87238 6.09308
Si -37.3167 3.25389 6.11918
Si -34.0931 3.00468 6.30548
O -37.6453 4.08124 7.51294
O -37.9223 1.69555 6.01481
O -37.6807 4.22284 4.82494
O -33.6762 3.42841 7.80995
O -33.6014 1.49288 6.01443
O -33.5454 3.95091 5.11225
O -35.5977 -4.31655 9.08473
Si -37.1677 -4.78046 8.90516
Si -33.9588 -4.40048 9.09193
O -35.81 -1.82393 8.39867
Si -37.4358 -1.63287 8.57952
Si -34.2089 -1.46393 8.39292
O -37.8704 -0.705895 9.88021
O -37.8332 -3.25189 8.74254
O -37.9165 -0.843432 7.20405
O -33.8546 -0.428406 9.58313
O -33.5251 -2.88459 8.74248
O -33.7768 -0.959748 6.91599
O -34.7118 -8.92771 6.0229
Si -36.2237 -9.57658 6.00024
Si -33.0892 -8.7844 5.81319
O -35.2607 -6.43484 6.19266
Si -36.9053 -6.48096 6.21136
Si -33.7285 -5.88055 6.39843
O -37.4396 -5.76753 7.60445
O -37.0843 -8.1432 6.10547
O -37.5076 -5.63975 4.91684
O -33.4339 -5.36099 7.9018
O -32.8598 -7.21156 6.10568
O -33.4483 -4.82389 5.2053
O -33.2754 -13.3385 9.17274
Si -34.6682 -14.1995 8.99654
Si -31.6714 -12.9926 9.18777
O -34.1284 -10.9895 8.48665
Si -35.7474 -11.2303 8.66991
Si -32.6767 -10.224 8.48321
O -36.4079 -10.4481 9.97069
O -35.7092 -12.8971 8.83321
O -36.4176 -10.5932 7.2946
O -32.6059 -9.13117 9.6728
O -31.6468 -11.4166 8.83606
O -32.3901 -9.62526 7.00613
O -31.2211 -17.5452 6.06068
Si -32.5001 -18.5807 6.07836
Si -29.6847 -16.9904 5.89478
O -32.3941 -15.3003 6.29349
Si -33.9702 -15.7731 6.30332
Si -31.0625 -14.3602 6.49508
O -34.6728 -15.225 7.69686
O -33.7077 -17.4243 6.19179
O -34.7704 -15.116 5.0095
O -30.9127 -13.7834 7.99895
O -29.8745 -15.4144 6.19716
O -31.0726 -13.2658 5.30324
O -28.6454 -21.4484 9.0043
Si -29.7803 -22.64 9.01336
Si -27.204 -20.6894 9.21232
O -30.1003 -19.3949 8.61412
Si -31.604 -20.0513 8.75266
Si -28.9068 -18.2691 8.56984
O -32.4526 -19.481 10.0549
O -31.129 -21.6522 8.89434
O -32.4107 -19.6063 7.37617
O -29.109 -17.195 9.76095
O -27.5968 -19.1526 8.90415
O -28.7975 -17.6273 7.08787
O -25.5948 -24.9493 5.79085
Si -26.5367 -26.2842 6.002
Si -24.2595 -23.9959 5.80008
O -27.2975 -23.1272 6.52622
Si -28.6955 -23.9781 6.34316
Si -26.2649 -21.8521 6.54091
O -29.5572 -23.6539 7.72138
O -28.0052 -25.4959 6.17536
O -29.6122 -23.5123 5.04506
O -26.2325 -21.202 8.02367
O -24.8523 -22.5408 6.1705
O -26.6335 -20.815 5.35668
O -21.9921 -28.0298 9.17809
Si -22.8054 -29.4455 8.95212
Si -20.834 -26.872 9.05114
O -24.0177 -26.3904 8.7349
Si -25.2715 -27.4534 8.69933
Si -23.1611 -25.0113 8.49579
O -26.2727 -27.1708 9.98992
O -24.368 -28.8598 8.81559
O -26.1251 -27.2265 7.3004
O -23.5923 -24.0052 9.68817
O -21.6495 -25.5089 8.7705
O -23.2552 -24.437 6.98696
O -18.0254 -30.6669 6.09202
Si -18.7145 -32.1494 6.26115
Si -17.0542 -29.3737 6.3695
O -20.3704 -29.1795 6.0765
Si -21.4053 -30.4449 6.25107
Si -19.6141 -27.7472 6.34129
O -22.3082 -30.302 7.6277
O -20.3351 -31.7314 6.25592
O -22.4174 -30.3317 4.93873
O -19.8214 -27.1253 7.8189
O -18.0481 -28.1128 6.20451
O -20.0706 -26.8011 5.11256
O -13.9715 -32.7489 8.43564
Si -14.3505 -34.3387 8.63179
Si -13.077 -31.3751 8.4186
O -16.2759 -31.6469 9.19775
Si -17.209 -32.985 8.96239
Si -15.7424 -30.0983 9.07922
O -18.1703 -33.0177 10.3173
O -16.0056 -34.1394 8.80555
O -18.2037 -32.8969 7.64373
O -15.9899 -29.3952 10.5162
O -14.168 -30.2358 8.75796
O -16.4364 -29.295 7.86167
O -9.49036 -34.2809 6.45027
Si -9.71526 -35.8982 6.22519
Si -8.83706 -32.7788 6.32927
O -11.9575 -33.5166 5.96234
Si -12.7432 -34.9611 5.96162
Si -11.6814 -31.9135 5.74783
O -13.778 -35.0596 7.2529
O -11.3839 -35.9342 6.08601
O -13.6237 -35.0686 4.56479
O -12.457 -31.1448 6.94103
O -10.0949 -31.8143 6.03161
O -11.984 -31.4 4.24459
O -4.81677 -35.2484 8.71489
Si -4.90972 -36.8807 8.88645
Si -4.39773 -33.6842 8.98091
O -7.54572 -34.7475 8.71664
Si -8.04259 -36.3049 8.88798
Si -7.38086 -33.1368 8.98396
O -8.93234 -36.5081 10.2659
O -6.56907 -37.0986 8.88881
O -9.02607 -36.575 7.57673
O -7.79327 -32.6465 10.4681
O -5.79353 -32.8877 8.83291
O -8.16682 -32.4302 7.76065
O -0.24406 -35.6698 5.9978
Si -0.0387507 -37.3008 5.96611
Si 0.0602439 -34.075 5.75879
O -2.83762 -35.5046 6.44921
Si -3.20227 -37.096 6.22346
Si -2.90891 -33.8683 6.32648
O -4.08751 -37.4834 7.57482
O -1.65602 -37.7239 6.08455
O -4.15035 -37.3877 4.90004
O -3.41482 -33.3021 7.75572
O -1.38773 -33.4169 6.03751
O -3.83227 -33.3706 5.09861
O 4.38033 -35.483 9.1644
Si 4.83458 -37.0547 8.97595
Si 4.48011 -33.8452 9.17352
O 1.89505 -35.6757 8.4213
Si 1.68464 -37.2957 8.63288
Si 1.55513 -34.0706 8.42726
O 0.743265 -37.7114 9.93089
O 3.29994 -37.707 8.80736
O 0.890657 -37.7694 7.25641
O 0.515605 -33.7168 9.61296
O 2.97444 -33.3984 8.80029
O 1.06044 -33.6276 6.95006
O 8.96597 -34.6211 5.9371
Si 9.6336 -36.1226 6.03411
Si 8.84999 -32.986 5.84982
O 6.50518 -35.1552 6.26661
Si 6.53896 -36.8004 6.28161
Si 5.95728 -33.6216 6.48026
O 5.82478 -37.3291 7.67722
O 8.2011 -36.9829 6.16592
O 5.69047 -37.3986 4.98939
O 5.45368 -33.3314 7.98958
O 7.28489 -32.7528 6.1744
O 4.89505 -33.3418 5.29167
O 13.4193 -33.1541 8.96055
Si 14.2669 -34.5647 8.95868
Si 13.0752 -31.5596 9.15221
O 11.0544 -34.0156 8.65811
Si 11.2886 -35.6438 8.71832
Si 10.2874 -32.5694 8.53394
O 10.5244 -36.3293 10.0179
O 12.9596 -35.6066 8.84203
O 10.6452 -36.2853 7.33501
O 9.20055 -32.4553 9.72584
O 11.4881 -31.5349 8.8485
O 9.71626 -32.3193 7.04108
O 17.6118 -31.1378 5.77369
Si 18.6425 -32.4089 5.96015
Si 17.0563 -29.5934 5.77424
O 15.3991 -32.2968 6.45353
Si 15.8436 -33.8737 6.28676
Si 14.4472 -30.9605 6.47961
O 15.3012 -34.6161 7.66513
O 17.4907 -33.614 6.12424
O 15.1558 -34.636 4.98799
O 13.8254 -30.7613 7.96129
O 15.4917 -29.7798 6.12808
O 13.3525 -31.0301 5.29153
O 21.5189 -28.5407 8.85053
Si 22.7009 -29.6852 8.86439
Si 20.765 -27.0947 9.04541
O 19.4311 -30.0107 8.68131
Si 20.1093 -31.5096 8.65477
Si 18.3325 -28.8084 8.46851
O 19.5674 -32.3916 9.94894
O 21.7115 -31.0327 8.75901
O 19.6576 -32.2764 7.26092
O 17.2494 -28.9555 9.66213
O 19.2253 -27.4921 8.75635
O 17.7416 -28.7398 6.96418
O 25.0372 -25.5157 5.78262
Si 26.3717 -26.4736 5.89125
Si 24.1129 -24.1618 5.69942
O 23.1995 -27.2042 6.36004
Si 24.0425 -28.6094 6.19351
Si 21.9353 -26.1573 6.37384
O 23.7109 -29.4715 7.5687
O 25.5681 -27.936 6.03874
O 23.5795 -29.5209 4.89185
O 21.2716 -26.1279 7.85066
O 22.6433 -24.746 6.03183
O 20.8994 -26.5048 5.18187
O 28.1465 -22.0208 9.03698
Si 29.5855 -22.8037 8.86485
Si 27.0428 -20.8055 9.04223
O 26.5378 -23.9401 8.51659
Si 27.5587 -25.2297 8.57622
Si 25.1478 -23.0767 8.38416
O 27.2403 -26.2113 9.87093
O 28.9829 -24.3585 8.71212
O 27.3308 -26.0994 7.18751
O 24.1491 -23.5266 9.57477
O 25.6655 -21.5791 8.70364
O 24.5323 -23.1493 6.88918
O 30.7788 -18.1394 5.9658
Si 32.3079 -18.7472 5.96168
Si 29.5333 -17.0844 5.78563
O 29.4025 -20.287 6.1491
Si 30.5996 -21.4158 6.17086
Si 27.9273 -19.5932 6.34917
O 30.4739 -22.3003 7.56231