2592
 Atoms. Timestep: 52147
O 14.5537 2.88734 -0.465832
Si 16.2024 2.85646 -0.542507
Si 13.0053 2.40055 -0.690646
O 14.7849 -0.432822 1.01725
Si 16.4024 -0.128539 0.879826
Si 13.1628 -0.248439 0.82828
O 16.9654 -0.0553402 2.45894
O 16.6844 1.37709 0.144868
O 16.8109 -1.60165 0.116575
O 12.6483 0.0123438 2.3324
O 12.7543 0.891918 -0.22198
O 12.5868 -1.57826 0.135976
O 14.1023 5.51612 -5.5896
Si 15.694 5.71259 -5.27521
Si 12.8262 4.53466 -5.46106
O 15.0084 2.10089 -3.43887
Si 16.4476 2.81039 -3.7636
Si 13.4162 2.22789 -3.63986
O 16.788 2.94224 -2.11591
O 16.3868 4.34235 -4.5214
O 16.9667 1.44598 -4.65535
O 12.6837 2.53454 -2.25686
O 13.403 3.16557 -4.94032
O 12.7593 1.19879 -4.67864
O 13.011 7.39737 -0.644714
Si 14.3288 8.34176 -0.396544
Si 11.4352 6.97662 -0.548666
O 13.934 5.05955 0.937647
Si 15.4873 5.64147 1.055
Si 12.3397 4.66977 1.15048
O 16.0455 5.79623 2.63181
O 15.3221 7.19521 0.377576
O 16.3172 4.36709 0.266931
O 12.0462 4.45079 2.70511
O 11.3802 5.76412 0.491548
O 12.139 3.34982 0.263807
O 11.5056 9.73254 -5.47272
Si 12.8277 10.6518 -5.15475
Si 10.5787 8.39424 -5.33369
O 13.3895 7.15627 -3.20446
Si 14.5419 8.26653 -3.59379
Si 11.9295 6.48142 -3.43757
O 14.8649 8.5946 -1.97105
O 13.984 9.6638 -4.38983
O 15.572 7.18936 -4.42809
O 11.1154 6.55887 -2.06518
O 11.3601 7.13047 -4.79101
O 12.0404 5.0756 -4.1829
O 9.74416 11.4936 -0.694423
Si 10.6779 12.8026 -0.364873
Si 8.41466 10.5554 -0.546763
O 11.2503 10.08 1.54199
Si 12.7059 10.7723 1.20454
Si 10.0955 8.95117 1.32589
O 13.1941 11.0137 2.7961
O 12.0242 12.1311 0.429881
O 13.8095 9.76692 0.382207
O 9.9421 8.22682 2.75103
O 8.77817 9.57763 0.670002
O 10.4756 8.10519 0.0174111
O 7.42657 12.9921 -5.39208
Si 8.37381 14.3058 -5.13729
Si 7.01553 11.4149 -5.2894
O 10.133 11.2136 -3.21764
Si 10.8133 12.6751 -3.55708
Si 8.99781 10.0649 -3.43349
O 11.0483 13.1666 -1.96548
O 9.80201 13.7796 -4.37006
O 12.1663 11.997 -4.34736
O 8.25824 9.91727 -2.0155
O 8.16289 10.4677 -4.74211
O 9.60716 8.74791 -4.10816
O 5.51716 14.0764 -0.755386
Si 5.7331 15.6643 -0.43624
Si 4.54191 12.7953 -0.623113
O 7.20013 13.3479 1.60792
Si 8.30113 14.5089 1.21788
Si 6.51448 11.8928 1.37291
O 8.62682 14.8387 2.83966
O 7.21544 15.5395 0.397796
O 9.69605 13.9575 0.41171
O 6.58941 11.0868 2.7507
O 5.09772 12.0164 0.652471
O 7.14495 11.3163 0.0131539
O 2.9029 14.5256 -5.13476
Si 2.8883 16.1742 -5.23093
Si 2.43757 12.9734 -5.38107
O 5.09896 13.9057 -3.76624
Si 5.68378 15.4582 -3.65812
Si 4.72467 12.3066 -3.56183
O 5.8306 16.0171 -2.08081
O 4.40644 16.288 -4.43857
O 7.23305 15.2952 -4.34785
O 4.48918 12.0112 -2.00958
O 3.4074 12.1033 -4.45134
O 5.82296 11.355 -4.22607
O 0.184388 14.8933 -0.951911
Si 0.0317601 16.5065 -0.577121
Si 0.11235 13.2519 -0.855319
O 2.13696 14.979 1.42368
Si 2.84472 16.418 1.09858
Si 2.25187 13.3875 1.22027
O 2.97442 16.7563 2.74689
O 1.47169 16.936 0.221686
O 4.37005 16.3608 0.327383
O 2.56361 12.6571 2.60348
O 1.18646 12.7361 0.216959
O 3.15757 13.3356 -0.103015
O -2.53322 14.6801 -5.52437
Si -2.97275 16.2503 -5.31845
Si -2.69506 13.0507 -5.51665
O -0.373906 14.7572 -3.65941
Si -0.0831732 16.3791 -3.78329
Si -0.197069 13.1315 -3.83713
O -0.0188781 16.9407 -2.20315
O -1.56103 16.7967 -4.52975
O 1.41748 16.6647 -4.52882
O 0.036856 12.6198 -2.32744
O -1.5324 12.5621 -4.52335
O 0.94289 12.6998 -4.87929
O -5.39163 14.142 -0.870304
Si -5.70315 15.7171 -0.538227
Si -4.43662 12.8265 -0.760408
O -2.13975 14.9737 1.36233
Si -2.83785 16.4208 1.03217
Si -2.15062 13.3797 1.11253
O -3.01707 16.8324 2.65633
O -4.33963 16.405 0.223736
O -1.43018 16.9034 0.19178
O -2.49839 12.6442 2.49165
O -3.0024 13.2278 -0.23967
O -0.940518 12.7802 0.260491
O -7.60706 13.087 -5.62165
Si -8.47512 14.4355 -5.27435
Si -7.19815 11.5102 -5.47947
O -5.69397 13.9874 -3.45267
Si -5.83093 15.6037 -3.73472
Si -5.04609 12.5047 -3.66069
O -5.89 16.165 -2.15041
O -7.35733 15.448 -4.48497
O -4.50003 16.2758 -4.5602
O -4.47082 12.1342 -2.20861
O -6.12673 11.5059 -4.28738
O -4.06559 12.503 -4.92805
O -9.78021 11.6004 -0.818958
Si -10.7096 12.9107 -0.483619
Si -8.44085 10.6714 -0.688727
O -7.1672 13.4484 1.44234
Si -8.30292 14.5914 1.09004
Si -6.49572 11.9826 1.20833
O -8.68267 14.9499 2.68963
O -9.6969 14.0545 0.271184
O -7.18693 15.6065 0.28979
O -6.65388 11.1823 2.59242
O -7.16312 11.4373 -0.149097
O -5.06356 12.0547 0.496516
O -11.5958 9.81465 -5.60849
Si -12.8977 10.7514 -5.25735
Si -10.6574 8.4843 -5.46567
O -10.226 11.3333 -3.32216
Si -10.8953 12.7979 -3.67285
Si -9.10801 10.1738 -3.56048
O -11.1052 13.2834 -2.07572
O -12.2446 12.0999 -4.45178
O -9.90112 13.9066 -4.5026
O -8.31996 10.0372 -2.1653
O -9.71002 8.84909 -4.22434
O -8.3503 10.5763 -4.91992
O -13.0498 7.5126 -0.746225
Si -14.3682 8.44917 -0.480094
Si -11.4694 7.1162 -0.643739
O -11.2736 10.2294 1.43694
Si -12.7437 10.8951 1.10491
Si -10.1229 9.0977 1.21299
O -13.2501 11.1249 2.69221
O -13.8413 9.88127 0.282688
O -12.0539 12.2512 0.327347
O -9.99517 8.34318 2.62653
O -10.5359 8.27756 -0.102409
O -8.80201 9.70447 0.540842
O -14.121 5.57028 -5.65883
Si -15.7086 5.78264 -5.3344
Si -12.8312 4.60528 -5.52822
O -13.4225 7.26217 -3.28658
Si -14.5852 8.36183 -3.67606
Si -11.9637 6.58653 -3.52609
O -14.9109 8.69227 -2.05426
O -15.6024 7.26424 -4.49752
O -14.0466 9.75863 -4.48665
O -11.1467 6.68219 -2.1556
O -12.067 5.16778 -4.24618
O -11.4144 7.21461 -4.89981
O -14.5404 2.96558 -0.472164
Si -16.1889 2.94428 -0.575777
Si -12.9829 2.52362 -0.728821
O -13.9435 5.16759 0.891711
Si -15.4981 5.74696 0.996757
Si -12.3378 4.81919 1.08855
O -16.0612 5.8834 2.57357
O -16.316 4.4637 0.21251
O -15.3451 7.29996 0.313023
O -12.0422 4.57394 2.63961
O -12.1197 3.51001 0.19021
O -11.4001 5.93255 0.42947
O -14.8862 0.230911 -5.85033
Si -16.4988 0.0764547 -5.47443
Si -13.2445 0.173928 -5.75172
O -14.9924 2.19238 -3.47447
Si -16.4361 2.89061 -3.79911
Si -13.402 2.31561 -3.67899
O -16.7721 3.02177 -2.15046
O -16.9406 1.51228 -4.67555
O -16.3947 4.41401 -4.57314
O -12.6734 2.64395 -2.29855
O -12.7411 1.24686 -4.67224
O -13.348 3.21122 -5.00967
O -14.6484 -2.46831 -0.855911
Si -16.2174 -2.91834 -0.661079
Si -13.0173 -2.61613 -0.85565
O -14.7421 -0.303325 0.984705
Si -16.368 -0.0283702 0.870929
Si -13.1166 -0.112258 0.816085
O -16.9303 0.0268604 2.4512
O -16.7749 -1.50937 0.12481
O -16.6687 1.47052 0.127867
O -12.6104 0.115844 2.32869
O -12.5354 -1.44143 0.127076
O -12.6849 1.03692 -0.216152
O -14.0975 -5.3354 -5.76309
Si -15.6723 -5.65076 -5.43325
Si -12.7859 -4.37567 -5.65102
O -14.9482 -2.08383 -3.53425
Si -16.3916 -2.78956 -3.8635
Si -13.3541 -2.08885 -3.78223
O -16.7994 -2.96884 -2.23849
O -16.3675 -4.29161 -4.67065
O -16.886 -1.38755 -4.70536
O -12.6156 -2.4257 -2.40208
O -13.1968 -2.94356 -5.13204
O -12.761 -0.881482 -4.64354
O -13.0352 -7.5391 -0.959343
Si -14.3811 -8.41252 -0.615372
Si -11.4601 -7.12406 -0.816084
O -13.9405 -5.62154 1.20126
Si -15.5563 -5.77141 0.922493
Si -12.4589 -4.96839 0.997733
O -16.1179 -5.83631 2.50639
O -15.3968 -7.29729 0.172994
O -16.2369 -4.44478 0.0980453
O -12.0915 -4.40236 2.45426
O -11.4586 -6.04839 0.3721
O -12.4496 -3.97628 -0.260463
O -11.5415 -9.71399 -5.71049
Si -12.8507 -10.6455 -5.37706
Si -10.6124 -8.37481 -5.5786
O -13.395 -7.10736 -3.45104
Si -14.5368 -8.24417 -3.80358
Si -11.9309 -6.43138 -3.68378
O -14.8945 -8.62318 -2.20367
O -13.9971 -9.63702 -4.62161
O -15.5563 -7.13368 -4.60491
O -11.1325 -6.58267 -2.29787
O -11.3781 -7.0968 -5.03897
O -12.0106 -4.99933 -4.39488
O -9.75486 -11.5264 -0.948156
Si -10.6918 -12.8286 -0.598542
Si -8.42617 -10.5857 -0.803443
O -11.2763 -10.1547 1.33691
Si -12.7389 -10.8284 0.986297
Si -10.1181 -9.03496 1.09948
O -13.2232 -11.0405 2.58336
O -12.0407 -12.1767 0.206786
O -13.85 -9.83684 0.157143
O -9.98001 -8.25071 2.49676
O -8.79299 -9.63711 0.436381
O -10.5211 -8.27254 -0.257033
O -7.44998 -12.984 -5.63692
Si -8.38932 -14.3013 -5.37355
Si -7.04778 -11.4048 -5.53502
O -10.1632 -11.2075 -3.45765
Si -10.8329 -12.676 -3.78883
Si -9.03186 -10.0559 -3.68059
O -11.0642 -13.1815 -2.20158
O -9.8207 -13.7747 -4.61044
O -12.1896 -11.9887 -4.56638
O -8.28285 -9.92469 -2.2643
O -8.20405 -10.4652 -4.99233
O -9.64266 -8.73606 -4.35131
O -5.51392 -14.0613 -0.997811
Si -5.73025 -15.6486 -0.674817
Si -4.54596 -12.7737 -0.867122
O -7.20529 -13.3542 1.37137
Si -8.3049 -14.5173 0.983039
Si -6.52654 -11.8965 1.13228
O -8.63442 -14.8427 2.60488
O -7.21119 -15.538 0.161887
O -9.70114 -13.9783 0.172684
O -6.61662 -11.0819 2.50467
O -5.10775 -12.0058 0.41299
O -7.15459 -11.3405 -0.238533
O -2.90658 -14.4928 -5.36579
Si -2.89236 -16.1414 -5.46828
Si -2.45607 -12.9373 -5.61964
O -5.10964 -13.8862 -4.00347
Si -5.69176 -15.4397 -3.89616
Si -4.752 -12.2827 -3.8048
O -5.83111 -16.0013 -2.31919
O -4.4116 -16.2626 -4.6794
O -7.24371 -15.2824 -4.58089
O -4.51009 -11.9867 -2.25308
O -3.43904 -12.0709 -4.6995
O -5.85993 -11.3397 -4.46599
O -0.178614 -14.8533 -1.18841
Si -0.0301989 -16.4667 -0.813916
Si -0.111323 -13.2119 -1.08991
O -2.13977 -14.9455 1.18519
Si -2.84243 -16.3872 0.861176
Si -2.25641 -13.3544 0.981105
O -2.9736 -16.7238 2.50954
O -1.46808 -16.9006 -0.0151658
O -4.36539 -16.3401 0.0873673
O -2.5765 -12.625 2.36339
O -1.18368 -12.7009 -0.0131778
O -3.15302 -13.2939 -0.348729
O 2.52875 -14.6302 -5.74918
Si 2.96923 -16.2018 -5.55295
Si 2.68481 -12.9998 -5.74785
O 0.362052 -14.7118 -3.90557
Si 0.0786363 -16.3361 -4.02071
Si 0.180134 -13.0854 -4.07507
O 0.0187782 -16.8983 -2.44067
O 1.55776 -16.7511 -4.76592
O -1.42115 -16.6288 -4.76489
O -0.0458254 -12.5782 -2.56219
O 1.51292 -12.512 -4.76424
O -0.967305 -12.6479 -5.10722
O 5.39147 -14.1014 -1.10572
Si 5.69911 -15.6773 -0.772569
Si 4.44149 -12.7823 -0.994549
O 2.13993 -14.9275 1.12631
Si 2.83524 -16.3761 0.797502
Si 2.15306 -13.3334 0.877644
O 3.01401 -16.7846 2.42231
O 4.33554 -16.3638 -0.0116796
O 1.43055 -16.8625 -0.0437026
O 2.49548 -12.5972 2.25802
O 3.00523 -13.1777 -0.474294
O 0.944988 -12.7355 0.020675
O 7.61166 -13.0494 -5.85123
Si 8.47692 -14.3998 -5.50429
Si 7.2071 -11.4712 -5.71159
O 5.68633 -13.9405 -3.69243
Si 5.82612 -15.5577 -3.96889
Si 5.04324 -12.4544 -3.89729
O 5.88448 -16.1218 -2.38577
O 7.35521 -15.4072 -4.71415
O 4.49647 -16.2299 -4.79553
O 4.47791 -12.0851 -2.44055
O 6.13086 -11.462 -4.52333
O 4.04895 -12.4396 -5.15396
O 9.78572 -11.5953 -1.0606
Si 10.7144 -12.9029 -0.710949
Si 8.4496 -10.6607 -0.932243
O 7.16985 -13.4189 1.21378
Si 8.30009 -14.5673 0.861071
Si 6.50329 -11.9515 0.976443
O 8.68034 -14.9213 2.46153
O 9.69526 -14.042 0.0393661
O 7.18073 -15.5761 0.058999
O 6.6665 -11.1465 2.35765
O 7.16779 -11.4173 -0.387837
O 5.07052 -12.0166 0.265029
O 11.6234 -9.77048 -5.83881
Si 12.9111 -10.7211 -5.47394
Si 10.6837 -8.43946 -5.69918
O 10.2389 -11.2989 -3.55645
Si 10.9007 -12.7691 -3.89859
Si 9.12592 -10.1348 -3.79914
O 11.109 -13.2664 -2.30556
O 12.2546 -12.066 -4.66568
O 9.90565 -13.8724 -4.73546
O 8.33682 -10.0079 -2.40212
O 9.73551 -8.80978 -4.45798
O 8.36326 -10.5391 -5.15547
O 13.0801 -7.60724 -1.02995
Si 14.4184 -8.49404 -0.690836
Si 11.499 -7.20917 -0.901176
O 11.295 -10.2575 1.23304
Si 12.7668 -10.918 0.891934
Si 10.1429 -9.13121 0.992596
O 13.2681 -11.1243 2.48413
O 13.8762 -9.92362 0.0639599
O 12.0613 -12.2634 0.109887
O 10.026 -8.33192 2.38486
O 10.5697 -8.37391 -0.359686
O 8.81544 -9.71719 0.314793
O 14.1447 -5.37655 -5.8278
Si 15.7119 -5.71516 -5.48249
Si 12.8218 -4.43064 -5.71334
O 13.4329 -7.19259 -3.52907
Si 14.5803 -8.32431 -3.87854
Si 11.9725 -6.51202 -3.76913
O 14.9346 -8.70322 -2.27814
O 15.597 -7.20152 -4.66362
O 14.0538 -9.71373 -4.71096
O 11.1723 -6.66797 -2.38387
O 12.0542 -5.07137 -4.46099
O 11.4304 -7.15758 -5.13987
O 14.6914 -2.55841 -0.91654
Si 16.2571 -3.00185 -0.688447
Si 13.0624 -2.71984 -0.888618
O 13.9768 -5.74098 1.15858
Si 15.5944 -5.86779 0.875548
Si 12.4995 -5.08245 0.945831
O 16.1581 -5.91717 2.45909
O 16.2697 -4.53485 0.0570841
O 15.4352 -7.38952 0.113822
O 12.1303 -4.48492 2.39005
O 12.5297 -4.10632 -0.324923
O 11.492 -6.14624 0.30052
O 14.9208 0.219083 -5.83792
Si 16.5294 0.0150089 -5.4692
Si 13.2805 0.125342 -5.7507
O 14.9692 -2.18342 -3.55534
Si 16.4212 -2.86873 -3.88902
Si 13.376 -2.16619 -3.8123
O 16.8385 -3.04855 -2.26662
O 16.9109 -1.45499 -4.71069
O 16.4084 -4.36194 -4.71157
O 12.6438 -2.50663 -2.42832
O 12.8098 -0.911911 -4.61884
O 13.1864 -2.99125 -5.17696
O 14.5537 2.88731 9.08676
Si 16.2024 2.85645 9.01005
Si 13.0053 2.40054 8.86192
O 14.7849 -0.432827 10.5698
Si 16.4024 -0.128544 10.4324
Si 13.1628 -0.248459 10.3808
O 16.9653 -0.0553476 12.0115
O 16.6844 1.37708 9.69742
O 16.8109 -1.60165 9.66912
O 12.6483 0.0123007 11.885
O 12.7543 0.891913 9.3306
O 12.5868 -1.57827 9.68851
O 14.1023 5.5161 3.96295
Si 15.694 5.71259 4.27734
Si 12.8262 4.53463 4.0915
O 15.0084 2.10088 6.11369
Si 16.4476 2.81039 5.78895
Si 13.4162 2.22787 5.91271
O 16.788 2.94224 7.43664
O 16.3868 4.34235 5.03115
O 16.9667 1.44598 4.8972
O 12.6837 2.53452 7.29571
O 13.403 3.16555 4.61226
O 12.7593 1.19879 4.87391
O 13.011 7.39738 8.90784
Si 14.3288 8.34176 9.156
Si 11.4352 6.97664 9.00386
O 13.934 5.0596 10.4902
Si 15.4873 5.64148 10.6075
Si 12.3397 4.66979 10.703
O 16.0455 5.79624 12.1843
O 15.3221 7.19522 9.93011
O 16.3172 4.36709 9.81947
O 12.0462 4.45083 12.2576
O 11.3802 5.76412 10.0441
O 12.1389 3.34983 9.81636
O 11.5056 9.73255 4.07981
Si 12.8277 10.6518 4.39778
Si 10.5787 8.39425 4.21883
O 13.3895 7.15627 6.34808
Si 14.5419 8.26653 5.95875
Si 11.9295 6.48143 6.11496
O 14.8649 8.5946 7.58149
O 13.984 9.6638 5.16271
O 15.572 7.18936 5.12445
O 11.1154 6.5589 7.48734
O 11.3602 7.13048 4.76151
O 12.0404 5.0756 5.36965
O 9.74417 11.4936 8.85812
Si 10.6779 12.8026 9.18767
Si 8.41467 10.5554 9.00578
O 11.2503 10.08 11.0946
Si 12.7059 10.7723 10.7571
Si 10.0955 8.95117 10.8785
O 13.1941 11.0137 12.3486
O 12.0242 12.1311 9.98243
O 13.8095 9.76693 9.93475
O 9.9421 8.22682 12.3036
O 8.77818 9.57764 10.2226
O 10.4756 8.1052 9.56996
O 7.42657 12.9921 4.16047
Si 8.37381 14.3058 4.41527
Si 7.01551 11.4149 4.26318
O 10.133 11.2136 6.33489
Si 10.8132 12.675 5.99546
Si 8.99781 10.0649 6.11906
O 11.0483 13.1666 7.58706
O 9.80201 13.7796 5.18249
O 12.1663 11.997 5.20518
O 8.25826 9.91725 7.53705
O 8.16287 10.4677 4.81045
O 9.60716 8.7479 5.44437
O 5.51712 14.0764 8.79716
Si 5.73309 15.6643 9.11631
Si 4.54186 12.7953 8.92945
O 7.20012 13.3479 11.1604
Si 8.30113 14.5089 10.7704
Si 6.51447 11.8928 10.9254
O 8.62682 14.8387 12.3922
O 7.21543 15.5395 9.95033
O 9.69605 13.9575 9.96424
O 6.58944 11.0868 12.3032
O 5.0977 12.0164 10.205
O 7.14497 11.3163 9.56567
O 2.90296 14.5256 4.41768
Si 2.88831 16.1742 4.32159
Si 2.43758 12.9735 4.17142
O 5.09889 13.9057 5.78634
Si 5.68377 15.4582 5.89442
Si 4.72463 12.3066 5.99073
O 5.83059 16.0171 7.47174
O 4.40644 16.288 5.11396
O 7.23304 15.2951 5.2047
O 4.48909 12.0112 7.54297
O 3.40739 12.1033 5.10118
O 5.82294 11.355 5.32653
O 0.184418 14.8933 8.60063
Si 0.0317718 16.5065 8.97542
Si 0.112399 13.2519 8.69721
O 2.13695 14.9791 10.9763
Si 2.84472 16.418 10.6511
Si 2.25185 13.3876 10.7729
O 2.97442 16.7563 12.2995
O 1.4717 16.936 9.77423
O 4.37005 16.3609 9.87994
O 2.56359 12.6571 12.1561
O 1.18648 12.7361 9.76953
O 3.15753 13.3357 9.44958
O -2.53323 14.68 4.02821
Si -2.97276 16.2502 4.23411
Si -2.69506 13.0507 4.03594
O -0.373902 14.7572 5.89313
Si -0.0831654 16.3791 5.76925
Si -0.197033 13.1316 5.7154
O -0.0188636 16.9407 7.34939
O -1.56103 16.7967 5.0228
O 1.41748 16.6647 5.02371
O 0.0369447 12.6198 7.22508
O -1.53238 12.5621 5.02922
O 0.942892 12.6998 4.67318
O -5.39165 14.142 8.68225
Si -5.70316 15.7171 9.01432
Si -4.43664 12.8265 8.79215
O -2.13972 14.9737 10.9148
Si -2.83785 16.4208 10.5847
Si -2.15059 13.3797 10.665
O -3.01706 16.8324 12.2089
O -4.33963 16.405 9.77627
O -1.43017 16.9034 9.74431
O -2.49837 12.6442 12.0442
O -3.00241 13.2278 9.31285
O -0.9405 12.7802 9.81298
O -7.60705 13.087 3.93089
Si -8.47512 14.4355 4.27819
Si -7.19814 11.5102 4.07305
O -5.69398 13.9874 6.09988
Si -5.83093 15.6037 5.81782
Si -5.04611 12.5046 5.89187
O -5.89001 16.165 7.40214
O -7.35733 15.448 5.06757
O -4.50004 16.2758 4.99236
O -4.47086 12.1342 7.34396
O -6.12674 11.5059 5.26516
O -4.06558 12.503 4.62453
O -9.78021 11.6004 8.73358
Si -10.7096 12.9107 9.06892
Si -8.44084 10.6714 8.8638
O -7.16722 13.4484 10.9949
Si -8.30292 14.5914 10.6426
Si -6.49573 11.9826 10.7609
O -8.68268 14.9499 12.2422
O -9.6969 14.0545 9.82373
O -7.18694 15.6065 9.84234
O -6.65389 11.1823 12.145
O -7.16312 11.4374 9.40345
O -5.06357 12.0547 10.0491
O -11.5958 9.81464 3.94406
Si -12.8977 10.7514 4.2952
Si -10.6574 8.48428 4.08689
O -10.226 11.3333 6.23037
Si -10.8953 12.7979 5.87969
Si -9.108 10.1738 5.99205
O -11.1052 13.2834 7.47682
O -12.2446 12.0999 5.10076
O -9.90112 13.9066 5.04993
O -8.31994 10.0372 7.38722
O -9.71001 8.8491 5.32821
O -8.35031 10.5763 4.6326
O -13.0498 7.5126 8.80632
Si -14.3682 8.44916 9.07246
Si -11.4694 7.11618 8.90884
O -11.2736 10.2294 10.9895
Si -12.7437 10.8951 10.6574
Si -10.1228 9.0977 10.7655
O -13.2501 11.1249 12.2447
O -13.8413 9.88126 9.83523
O -12.0539 12.2512 9.87988
O -9.99516 8.3432 12.1791
O -10.5359 8.27754 9.45014
O -8.802 9.70447 10.0934
O -14.121 5.57031 3.89371
Si -15.7086 5.78265 4.21814
Si -12.8312 4.60532 4.0243
O -13.4225 7.26218 6.26599
Si -14.5852 8.36183 5.87649
Si -11.9637 6.58652 6.02648
O -14.9109 8.69226 7.49829
O -15.6024 7.26425 5.05502
O -14.0466 9.75863 5.0659
O -11.1468 6.68215 7.39698
O -12.067 5.16779 5.30636
O -11.4144 7.2146 4.65277
O -14.5404 2.96564 9.0803
Si -16.1889 2.94429 8.97675
Si -12.9829 2.52365 8.82367
O -13.9436 5.16751 10.4443
Si -15.4981 5.74695 10.5493
Si -12.3378 4.81915 10.6411
O -16.0612 5.88339 12.1261
O -16.316 4.4637 9.76505
O -15.3451 7.29995 9.86558
O -12.0422 4.57386 12.1922
O -12.1198 3.51001 9.74273
O -11.4002 5.93254 9.98207
O -14.8862 0.230889 3.70222
Si -16.4988 0.0764454 4.07812
Si -13.2445 0.173888 3.80085
O -14.9924 2.19239 6.07803
Si -16.4361 2.89061 5.75342
Si -13.402 2.31564 5.8735
O -16.7721 3.02178 7.40207
O -16.9405 1.51227 4.87699
O -16.3947 4.41401 4.97939
O -12.6734 2.64398 7.25395
O -12.7411 1.24685 4.88028
O -13.348 3.21125 4.54283
O -14.6484 -2.46832 8.69667
Si -16.2174 -2.91834 8.89147
Si -13.0173 -2.61613 8.69693
O -14.7421 -0.30332 10.5372
Si -16.368 -0.0283621 10.4235
Si -13.1166 -0.112223 10.3686
O -16.9303 0.0268731 12.0037
O -16.7749 -1.50937 9.67735
O -16.6687 1.47053 9.6804
O -12.6104 0.115921 11.8812
O -12.5354 -1.44141 9.67963
O -12.6849 1.03693 9.33632
O -14.0975 -5.33539 3.78945
Si -15.6723 -5.65076 4.11929
Si -12.7859 -4.37566 3.90151
O -14.9482 -2.08385 6.01833
Si -16.3916 -2.78956 5.68905
Si -13.3541 -2.08887 5.77034
O -16.7994 -2.96885 7.31407
O -16.3675 -4.29161 4.8819
O -16.886 -1.38756 4.84719
O -12.6156 -2.42572 7.15049
O -13.1968 -2.94356 4.42052
O -12.761 -0.881496 4.90905
O -13.0352 -7.53909 8.59319
Si -14.3811 -8.41252 8.93717
Si -11.4601 -7.12405 8.73644
O -13.9405 -5.62154 10.7538
Si -15.5563 -5.77141 10.475
Si -12.4589 -4.96841 10.5503
O -16.1179 -5.83631 12.0589
O -15.3968 -7.29729 9.72554
O -16.2369 -4.44478 9.6506
O -12.0914 -4.40239 12.0068
O -11.4586 -6.0484 9.92464
O -12.4496 -3.97627 9.29212
O -11.5415 -9.71399 3.84205
Si -12.8507 -10.6455 4.17549
Si -10.6124 -8.37481 3.97395
O -13.395 -7.10735 6.10149
Si -14.5368 -8.24417 5.74896
Si -11.9309 -6.43137 5.86874
O -14.8945 -8.62317 7.34886
O -13.9971 -9.63702 4.93093
O -15.5563 -7.13368 4.94762
O -11.1326 -6.58266 7.25466
O -11.3781 -7.0968 4.51356
O -12.0106 -4.99932 5.15763
O -9.75485 -11.5264 8.60439
Si -10.6918 -12.8286 8.954
Si -8.42617 -10.5857 8.74911
O -11.2763 -10.1547 10.8894
Si -12.7389 -10.8284 10.5388
Si -10.1181 -9.03496 10.652
O -13.2232 -11.0405 12.1359
O -12.0407 -12.1767 9.75933
O -13.85 -9.83684 9.70968
O -9.98003 -8.25069 12.0493
O -8.79299 -9.63711 9.98892
O -10.5211 -8.27255 9.29549
O -7.44998 -12.984 3.91562
Si -8.38932 -14.3013 4.17899
Si -7.04779 -11.4048 4.0175
O -10.1632 -11.2075 6.0949
Si -10.8329 -12.676 5.76372
Si -9.03186 -10.0559 5.87197
O -11.0642 -13.1815 7.35097
O -9.82071 -13.7747 4.9421
O -12.1896 -11.9887 4.98617
O -8.28284 -9.9247 7.28825
O -8.20406 -10.4652 4.56021
O -9.64266 -8.73607 5.20125
O -5.51394 -14.0613 8.55473
Si -5.73026 -15.6486 8.87772
Si -4.54598 -12.7737 8.68541
O -7.20529 -13.3542 10.9239
Si -8.3049 -14.5173 10.5356
Si -6.52653 -11.8965 10.6848
O -8.63442 -14.8427 12.1574
O -7.21119 -15.538 9.71443
O -9.70114 -13.9783 9.72523
O -6.6166 -11.0819 12.0572
O -5.10776 -12.0058 9.96553
O -7.15458 -11.3405 9.31403
O -2.90656 -14.4928 4.18679
Si -2.89236 -16.1414 4.08427
Si -2.45607 -12.9373 3.93292
O -5.10967 -13.8862 5.54905
Si -5.69177 -15.4397 5.65638
Si -4.75202 -12.2827 5.74774
O -5.83111 -16.0012 7.23335
O -4.4116 -16.2626 4.87315
O -7.24372 -15.2824 4.97164
O -4.51013 -11.9867 7.29946
O -3.43905 -12.0709 4.85305
O -5.85993 -11.3396 5.08652
O -0.178606 -14.8533 8.36414
Si -0.030195 -16.4667 8.73863
Si -0.111306 -13.2119 8.46264
O -2.13978 -14.9455 10.7377
Si -2.84244 -16.3872 10.4137
Si -2.25642 -13.3544 10.5336
O -2.97361 -16.7238 12.0621
O -1.46807 -16.9006 9.53737
O -4.3654 -16.3401 9.6399
O -2.57651 -12.625 11.9159
O -1.18368 -12.7009 9.53935
O -3.15303 -13.2939 9.20379
O 2.52875 -14.6302 3.80335
Si 2.96923 -16.2018 3.99959
Si 2.68482 -12.9998 3.80468
O 0.362056 -14.7118 5.64698
Si 0.0786402 -16.3361 5.53184
Si 0.18015 -13.0854 5.47748
O 0.0187841 -16.8983 7.11188
O 1.55776 -16.7511 4.78662
O -1.42114 -16.6288 4.78766
O -0.0457906 -12.5782 6.99036
O 1.51293 -12.512 4.78829
O -0.967302 -12.6479 4.44535
O 5.39146 -14.1014 8.44682
Si 5.69911 -15.6773 8.77997
Si 4.44149 -12.7823 8.55799
O 2.13994 -14.9275 10.6789
Si 2.83524 -16.3761 10.35
Si 2.15307 -13.3334 10.4302
O 3.01401 -16.7846 11.9749
O 4.33554 -16.3638 9.54086
O 1.43055 -16.8625 9.50884
O 2.49549 -12.5972 11.8106
O 3.00523 -13.1777 9.07826
O 0.944992 -12.7355 9.57324
O 7.61167 -13.0494 3.70131
Si 8.47692 -14.3998 4.04825
Si 7.2071 -11.4712 3.84096
O 5.68632 -13.9405 5.86012
Si 5.82612 -15.5577 5.58365
Si 5.04324 -12.4544 5.65525
O 5.88448 -16.1218 7.16677
O 7.35521 -15.4072 4.83839
O 4.49647 -16.2299 4.757
O 4.47789 -12.0851 7.11199
O 6.13086 -11.462 5.02922
O 4.04896 -12.4396 4.39856
O 9.78572 -11.5953 8.49194
Si 10.7144 -12.9029 8.84159
Si 8.44961 -10.6607 8.6203
O 7.16984 -13.4189 10.7663
Si 8.30009 -14.5673 10.4136
Si 6.50329 -11.9515 10.529
O 8.68034 -14.9213 12.0141
O 9.69526 -14.042 9.59191
O 7.18072 -15.5761 9.61154
O 6.6665 -11.1465 11.9102
O 7.16779 -11.4173 9.1647
O 5.07051 -12.0166 9.81756
O 11.6234 -9.77048 3.71373
Si 12.9111 -10.7211 4.0786
Si 10.6837 -8.43946 3.85336
O 10.2389 -11.2989 5.99609
Si 10.9007 -12.7691 5.65395
Si 9.12593 -10.1348 5.7534
O 11.109 -13.2664 7.24698
O 12.2546 -12.066 4.88686
O 9.90565 -13.8724 4.81709
O 8.33682 -10.0079 7.15042
O 9.73551 -8.80977 5.09455
O 8.36326 -10.5391 4.39707
O 13.0801 -7.60725 8.52259
Si 14.4184 -8.49404 8.86171
Si 11.499 -7.20917 8.65137
O 11.295 -10.2575 10.7856
Si 12.7668 -10.918 10.4445
Si 10.1429 -9.13122 10.5451
O 13.2681 -11.1243 12.0367
O 13.8762 -9.92362 9.6165
O 12.0613 -12.2634 9.66243
O 10.026 -8.33192 11.9374
O 10.5697 -8.37391 9.19286
O 8.81544 -9.7172 9.86734
O 14.1447 -5.37656 3.72474
Si 15.7119 -5.71516 4.07005
Si 12.8218 -4.43064 3.83921
O 13.4329 -7.1926 6.02348
Si 14.5803 -8.32432 5.67401
Si 11.9725 -6.51202 5.78342
O 14.9346 -8.70323 7.27441
O 15.597 -7.20152 4.88892
O 14.0538 -9.71373 4.84158
O 11.1723 -6.66797 7.16868
O 12.0542 -5.07137 5.09157
O 11.4304 -7.15758 4.41267
O 14.6914 -2.5584 8.63599
Si 16.2571 -3.00185 8.86409
Si 13.0624 -2.71984 8.66391
O 13.9768 -5.74097 10.7111
Si 15.5944 -5.86779 10.4281
Si 12.4995 -5.08245 10.4984
O 16.1581 -5.91717 12.0116
O 16.2697 -4.53485 9.60962
O 15.4352 -7.38952 9.66636
O 12.1303 -4.48491 11.9426
O 12.5298 -4.10632 9.2276
O 11.492 -6.14624 9.85306
O 14.9208 0.219094 3.71461
Si 16.5294 0.0150144 4.08334
Si 13.2805 0.125363 3.80183
O 14.9692 -2.1834 5.99718
Si 16.4212 -2.86872 5.66352
Si 13.3759 -2.16618 5.74022
O 16.8385 -3.04855 7.28592
O 16.9109 -1.45498 4.84184
O 16.4084 -4.36194 4.84097
O 12.6438 -2.50662 7.12421
O 12.8098 -0.911904 4.93368
O 13.1864 -2.99125 4.37557
O 14.5537 2.88734 18.6393
Si 16.2024 2.85646 18.5626
Si 13.0053 2.40055 18.4144
O 14.7849 -0.432822 20.1223
Si 16.4024 -0.128539 19.9849
Si 13.1628 -0.248439 19.9334
O 16.9654 -0.0553404 21.564
O 16.6844 1.37709 19.25
O 16.8109 -1.60165 19.2217
O 12.6483 0.012343 21.4375
O 12.7543 0.891918 18.8831
O 12.5868 -1.57826 19.2411
O 14.1023 5.51612 13.5155
Si 15.694 5.71259 13.8299
Si 12.8262 4.53466 13.644
O 15.0084 2.10089 15.6662
Si 16.4476 2.81039 15.3415
Si 13.4162 2.22789 15.4652
O 16.788 2.94224 16.9892
O 16.3868 4.34235 14.5837
O 16.9667 1.44598 14.4497
O 12.6837 2.53454 16.8482
O 13.403 3.16556 14.1648
O 12.7593 1.19879 14.4264
O 13.011 7.39737 18.4604
Si 14.3288 8.34176 18.7085
Si 11.4352 6.97662 18.5564
O 13.934 5.05955 20.0427
Si 15.4873 5.64147 20.1601
Si 12.3397 4.66977 20.2556
O 16.0455 5.79623 21.7369
O 15.3221 7.19521 19.4827
O 16.3172 4.36709 19.372
O 12.0462 4.4508 21.8102
O 11.3802 5.76412 19.5966
O 12.139 3.34982 19.3689
O 11.5056 9.73254 13.6324
Si 12.8277 10.6518 13.9503
Si 10.5787 8.39424 13.7714
O 13.3895 7.15627 15.9006
Si 14.5419 8.26653 15.5113
Si 11.9295 6.48142 15.6675
O 14.8649 8.5946 17.134
O 13.984 9.6638 14.7153
O 15.572 7.18936 14.677
O 11.1154 6.55887 17.0399
O 11.3601 7.13047 14.3141
O 12.0404 5.0756 14.9222
O 9.74416 11.4936 18.4107
Si 10.6779 12.8026 18.7402
Si 8.41466 10.5554 18.5583
O 11.2503 10.08 20.6471
Si 12.7059 10.7723 20.3096
Si 10.0955 8.95117 20.431
O 13.1941 11.0137 21.9012
O 12.0242 12.1311 19.535
O 13.8095 9.76692 19.4873
O 9.9421 8.22682 21.8561
O 8.77817 9.57763 19.7751
O 10.4756 8.10519 19.1225
O 7.42657 12.9921 13.713
Si 8.37381 14.3058 13.9678
Si 7.01553 11.4149 13.8157
O 10.133 11.2136 15.8874
Si 10.8133 12.6751 15.548
Si 8.99781 10.0649 15.6716
O 11.0483 13.1666 17.1396
O 9.80201 13.7796 14.735
O 12.1663 11.997 14.7577
O 8.25824 9.91727 17.0896
O 8.16289 10.4677 14.363
O 9.60716 8.74791 14.9969
O 5.51716 14.0764 18.3497
Si 5.7331 15.6643 18.6688
Si 4.54191 12.7953 18.482
O 7.20013 13.3479 20.713
Si 8.30113 14.5089 20.323
Si 6.51448 11.8928 20.478
O 8.62682 14.8387 21.9447
O 7.21544 15.5395 19.5029
O 9.69605 13.9575 19.5168
O 6.58941 11.0868 21.8558
O 5.09772 12.0164 19.7576
O 7.14495 11.3163 19.1182
O 2.9029 14.5256 13.9703
Si 2.8883 16.1742 13.8741
Si 2.43757 12.9734 13.724
O 5.09896 13.9057 15.3388
Si 5.68378 15.4582 15.447
Si 4.72467 12.3066 15.5433
O 5.8306 16.0171 17.0243
O 4.40644 16.288 14.6665
O 7.23305 15.2952 14.7572
O 4.48918 12.0112 17.0955
O 3.4074 12.1033 14.6537
O 5.82295 11.355 14.879
O 0.184387 14.8933 18.1532
Si 0.0317601 16.5065 18.528
Si 0.11235 13.2519 18.2498
O 2.13696 14.979 20.5288
Si 2.84472 16.418 20.2037
Si 2.25187 13.3875 20.3254
O 2.97442 16.7563 21.852
O 1.47169 16.936 19.3268
O 4.37005 16.3608 19.4325
O 2.56361 12.6571 21.7086
O 1.18646 12.7361 19.322
O 3.15757 13.3356 19.0021
O -2.53322 14.6801 13.5807
Si -2.97275 16.2503 13.7866
Si -2.69506 13.0507 13.5884
O -0.373907 14.7572 15.4457
Si -0.0831732 16.3791 15.3218
Si -0.197069 13.1315 15.268
O -0.0188781 16.9407 16.9019
O -1.56103 16.7967 14.5753
O 1.41748 16.6647 14.5763
O 0.0368563 12.6198 16.7776
O -1.5324 12.5621 14.5817
O 0.94289 12.6998 14.2258
O -5.39163 14.142 18.2348
Si -5.70315 15.7171 18.5669
Si -4.43662 12.8265 18.3447
O -2.13975 14.9737 20.4674
Si -2.83785 16.4208 20.1373
Si -2.15062 13.3797 20.2176
O -3.01707 16.8324 21.7614
O -4.33963 16.405 19.3288
O -1.43018 16.9034 19.2969
O -2.49839 12.6442 21.5967
O -3.0024 13.2278 18.8654
O -0.940518 12.7802 19.3656
O -7.60706 13.087 13.4834
Si -8.47512 14.4355 13.8307
Si -7.19815 11.5102 13.6256
O -5.69397 13.9874 15.6524
Si -5.83093 15.6037 15.3704
Si -5.04609 12.5047 15.4444
O -5.89 16.165 16.9547
O -7.35733 15.448 14.6201
O -4.50003 16.2758 14.5449
O -4.47082 12.1342 16.8965
O -6.12673 11.5059 14.8177
O -4.06559 12.503 14.177
O -9.78021 11.6004 18.2861
Si -10.7096 12.9107 18.6215
Si -8.44085 10.6714 18.4164
O -7.1672 13.4484 20.5474
Si -8.30292 14.5914 20.1951
Si -6.49572 11.9826 20.3134
O -8.68267 14.9499 21.7947
O -9.6969 14.0545 19.3763
O -7.18693 15.6065 19.3949
O -6.65388 11.1823 21.6975
O -7.16312 11.4374 18.956
O -5.06356 12.0547 19.6016
O -11.5958 9.81465 13.4966
Si -12.8977 10.7514 13.8477
Si -10.6574 8.4843 13.6394
O -10.226 11.3333 15.7829
Si -10.8953 12.7979 15.4322
Si -9.10801 10.1738 15.5446
O -11.1052 13.2834 17.0294
O -12.2446 12.0999 14.6533
O -9.90112 13.9066 14.6025
O -8.31996 10.0372 16.9398
O -9.71002 8.84909 14.8807
O -8.3503 10.5763 14.1852
O -13.0498 7.5126 18.3589
Si -14.3682 8.44917 18.625
Si -11.4694 7.1162 18.4613
O -11.2736 10.2294 20.542
Si -12.7437 10.8951 20.21
Si -10.1229 9.0977 20.3181
O -13.2501 11.1249 21.7973
O -13.8413 9.88127 19.3878
O -12.0539 12.2512 19.4324
O -9.99517 8.34318 21.7316
O -10.5359 8.27756 19.0027
O -8.80201 9.70447 19.6459
O -14.121 5.57028 13.4463
Si -15.7086 5.78264 13.7707
Si -12.8312 4.60528 13.5769
O -13.4225 7.26217 15.8185
Si -14.5852 8.36183 15.429
Si -11.9637 6.58653 15.579
O -14.9109 8.69227 17.0508
O -15.6024 7.26424 14.6076
O -14.0466 9.75863 14.6184
O -11.1467 6.68219 16.9495
O -12.067 5.16778 14.8589
O -11.4144 7.21461 14.2053
O -14.5404 2.96558 18.6329
Si -16.1889 2.94428 18.5293
Si -12.9829 2.52362 18.3763
O -13.9435 5.16758 19.9968
Si -15.4981 5.74696 20.1018
Si -12.3378 4.81919 20.1936
O -16.0612 5.8834 21.6787
O -16.316 4.4637 19.3176
O -15.3451 7.29996 19.4181
O -12.0422 4.57393 21.7447
O -12.1197 3.51001 19.2953
O -11.4001 5.93255 19.5346
O -14.8862 0.230911 13.2547
Si -16.4988 0.0764547 13.6307
Si -13.2445 0.173928 13.3534
O -14.9924 2.19238 15.6306
Si -16.4361 2.89061 15.306
Si -13.402 2.31561 15.4261
O -16.7721 3.02177 16.9546
O -16.9406 1.51228 14.4295
O -16.3947 4.41401 14.5319
O -12.6734 2.64395 16.8065
O -12.7411 1.24686 14.4328
O -13.348 3.21122 14.0954
O -14.6484 -2.46831 18.2492
Si -16.2174 -2.91834 18.444
Si -13.0173 -2.61613 18.2494
O -14.7421 -0.303325 20.0898
Si -16.368 -0.0283702 19.976
Si -13.1166 -0.112258 19.9212
O -16.9303 0.0268605 21.5563
O -16.7749 -1.50937 19.2299
O -16.6687 1.47052 19.233
O -12.6104 0.115844 21.4338
O -12.5354 -1.44143 19.2322
O -12.6849 1.03692 18.8889