2880
 Atoms. Timestep: 47227
O 16.3238 2.29938 -0.936911
Si 17.9033 2.69519 -0.607151
Si 14.6893 2.12753 -0.841675
O 16.6926 0.284984 1.28806
Si 18.2589 -0.100516 1.01742
Si 15.1414 -0.11046 1.09491
O 18.6467 -0.156955 2.64896
O 9.93825 15.9139 0.558444
O 10.0703 -16.256 0.587953
O 14.5172 -0.507051 2.51562
O 8.25857 12.2929 0.320168
O 8.40673 -12.4863 0.380867
O 15.594 5.1699 -5.16728
Si 17.1845 5.62787 -5.26809
Si 13.9955 4.85721 -5.44177
O 16.1151 2.80122 -3.74422
Si 17.7662 2.77099 -3.80363
Si 14.5445 2.32907 -3.85735
O 18.3218 2.80928 -2.22682
O 6.99432 17.3655 -4.06811
O 12.1953 -14.642 -4.08792
O 14.0766 2.07875 -2.33017
O 5.07042 14.1554 -3.66005
O 9.40814 -12.2189 -3.672
O 14.7823 7.81175 -0.793124
Si 16.33 8.26585 -0.506768
Si 13.5839 6.71757 -0.67459
O 16.0426 4.61012 1.31144
Si 17.382 5.49642 0.997136
Si 14.4601 4.43371 1.07146
O 17.7339 5.72876 2.61832
O 4.55699 18.26 0.542586
O 14.5349 -12.3856 0.553881
O 13.6868 4.69239 2.45059
O 4.05033 14.1498 0.361654
O 11.8514 -9.4505 0.288676
O 13.1907 10.3662 -5.45894
Si 14.7124 10.9079 -5.12994
Si 11.9486 9.32465 -5.27422
O 14.8175 7.42373 -3.5009
Si 16.1848 8.30895 -3.69287
Si 13.2163 7.11204 -3.61177
O 16.7289 8.49555 -2.1194
O 1.29739 18.7448 -4.16161
O 15.9662 -10.1451 -4.18841
O 12.8648 6.67136 -2.10638
O 0.5011 14.6982 -3.87056
O 12.5908 -8.75905 -3.80949
O 11.7654 11.9146 -0.572403
Si 13.0256 12.9272 -0.298075
Si 10.938 10.5156 -0.403941
O 13.9203 9.44155 1.54117
Si 14.9479 10.678 1.17184
Si 12.5255 8.62219 1.33866
O 15.2589 11.1034 2.7619
O -1.29633 18.7314 0.410948
O 17.4183 -7.30367 0.389373
O 11.7477 8.64822 2.74334
O -0.479703 14.6863 0.127024
O 14.3219 -5.54615 -0.0140767
O 9.38488 13.9793 -5.28639
Si 10.6508 14.9828 -4.95836
Si 8.53067 12.6113 -5.04669
O 11.8368 11.8061 -3.17693
Si 12.8807 13.0381 -3.47306
Si 10.4207 10.997 -3.32123
O 13.3254 13.3528 -1.88937
O -4.55256 18.2118 -4.29156
O 18.1224 -4.62161 -4.36882
O 10.2565 10.341 -1.85588
O -4.02256 14.1081 -4.10313
O 13.8721 -3.96726 -4.39967
O 8.04078 14.8118 -0.56005
Si 8.47403 16.348 -0.182313
Si 7.27511 13.4127 -0.248708
O 10.2511 13.3172 1.70962
Si 10.9248 14.7858 1.34464
Si 9.25383 12.0234 1.55451
O 11.1095 15.3011 2.92691
O -6.97022 17.3095 0.313745
O 18.5299 -1.59236 0.252236
O 8.57666 11.8282 3.00577
O -5.05326 14.0791 -0.0785158
O 15.1098 -1.04134 -0.209767
O 4.75791 16.1675 -5.29303
Si 5.53875 17.559 -4.91217
Si 4.29836 14.6402 -4.98035
O 7.5837 14.9755 -3.00405
Si 8.22641 16.4494 -3.35011
Si 6.51351 13.7404 -3.13642
O 8.56655 16.8863 -1.76736
O -9.91772 15.8402 -4.30132
O 18.3151 1.34613 -4.5376
O 6.55409 13.0909 -1.65715
O -8.24434 12.2229 -4.05547
O 14.2886 1.08514 -4.84238
O 3.22215 16.5323 -0.564173
Si 3.04789 18.1364 -0.227015
Si 2.8516 14.9619 -0.32817
O 5.18739 15.9681 1.72082
Si 5.79136 17.46 1.38219
Si 5.06886 14.3381 1.59261
O 5.85525 18.0076 2.96553
O -11.9417 14.2734 0.388416
O 18.0842 4.19074 0.163763
O 4.58066 13.9054 3.07127
O -9.17896 11.8286 0.032725
O 14.0526 3.13891 0.228994
O 0.0481803 16.74 -5.3107
Si -0.108119 18.3467 -5.01911
Si -0.357033 15.164 -5.14686
O 2.11841 16.6722 -3.02721
Si 2.69706 18.1831 -3.38328
Si 1.9067 15.0529 -3.18701
O 2.93668 18.6822 -1.80373
O -14.2657 11.9516 -4.13345
O 17.1183 7.16326 -4.53704
O 2.25716 14.4393 -1.73499
O -11.8244 9.18585 -3.77754
O 13.0918 5.96952 -4.72659
O -2.10843 16.644 -0.716862
Si -2.69033 18.1539 -0.364182
Si -1.88917 15.0256 -0.556905
O -0.0392628 16.7395 1.56001
Si 0.110678 18.3473 1.27145
Si 0.376697 15.166 1.39939
O -0.00174501 18.8734 2.85694
O -15.8338 9.92872 0.556067
O 16.0774 9.70882 0.350209
O 0.0135283 14.5727 2.8577
O -12.219 8.24946 0.310876
O 12.7579 7.22377 0.599094
O -5.18131 15.9076 -5.47206
Si -5.78004 17.4014 -5.13074
Si -5.04453 14.2791 -5.33407
O -3.20686 16.5001 -3.18094
Si -3.04316 18.1051 -3.52008
Si -2.82866 14.932 -3.41862
O -2.93707 18.6512 -1.94304
O -17.3068 6.98366 -4.05869
O 14.1542 12.2993 -4.32031
O -2.23015 14.4127 -2.01185
O -14.0777 5.06128 -3.66699
O 10.692 10.0283 -4.57259
O -7.56158 14.9091 -0.736697
Si -8.19846 16.3879 -0.399148
Si -6.4986 13.6676 -0.601413
O -4.74869 16.1071 1.5463
Si -5.52107 17.5031 1.16499
Si -4.27971 14.5818 1.23466
O -5.84408 17.9494 2.74809
O -18.2128 4.56757 0.546554
O 12.3111 14.2016 0.559817
O -4.5509 13.849 2.64912
O -14.1102 4.02701 0.35831
O 9.99982 10.7832 0.870393
O -10.2393 13.2405 -5.44686
Si -10.9028 14.7165 -5.09441
Si -9.24425 11.9457 -5.28522
O -8.00311 14.7456 -3.18343
Si -8.45275 16.2763 -3.56528
Si -7.24998 13.3389 -3.49555
O -8.54406 16.8186 -1.98183
O -18.7403 1.31402 -4.15566
O 9.66959 16.1355 -4.18287
O -6.53755 13.0167 -2.0813
O -14.697 0.487049 -3.87196
O 7.10634 12.8879 -4.36459
O -11.8246 11.7706 -0.575839
Si -12.8519 13.0165 -0.287047
Si -10.4228 10.9435 -0.413137
O -9.36524 13.9154 1.54896
Si -10.6182 14.9322 1.21189
Si -8.51831 12.542 1.31254
O -11.0826 15.2406 2.7883
O -18.761 -1.28001 0.417185
O 7.31032 17.2375 0.666202
O -8.56783 11.7556 2.72202
O -14.7109 -0.499322 0.127247
O 6.38643 13.6169 1.07138
O -13.9104 9.37449 -5.29408
Si -14.9256 10.6287 -4.9568
Si -12.5381 8.52576 -5.0575
O -11.7635 11.8317 -3.1689
Si -13.0081 12.8607 -3.45776
Si -10.9383 10.4289 -3.3317
O -13.302 13.3109 -1.87238
O -18.2886 -4.53887 -4.28748
O 4.19226 18.2827 -4.17173
O -10.2626 10.268 -1.8725
O -14.1761 -4.04822 -4.10513
O 2.80699 14.548 -4.42089
O -14.7416 8.01055 -0.561198
Si -16.2712 8.46404 -0.179507
Si -13.3356 7.25582 -0.249159
O -13.2345 10.2469 1.70156
Si -14.7095 10.9127 1.34947
Si -11.941 9.25005 1.53993
O -15.2335 11.0931 2.92852
O -17.4041 -6.98154 0.323812
O 1.64263 18.5989 0.595877
O -11.7515 8.57423 2.9949
O -14.1784 -5.07469 -0.082144
O 1.88383 14.925 0.954405
O -16.1072 4.76061 -5.29098
Si -17.5022 5.53491 -4.90995
Si -14.5829 4.28816 -4.9795
O -14.9059 7.57044 -3.0078
Si -16.3834 8.21026 -3.34558
Si -13.6653 6.50642 -3.14395
O -16.8136 8.55629 -1.76286
O -15.9724 -9.92991 -4.3045
O -1.64192 18.5827 -4.34151
O -13.014 6.54434 -1.66412
O -12.3403 -8.27039 -4.06521
O -1.86163 14.9065 -4.70207
O -16.5034 3.21642 -0.563368
Si -18.109 3.05803 -0.224717
Si -14.9362 2.83422 -0.325744
O -15.9074 5.19138 1.72657
Si -17.4001 5.79327 1.38583
Si -14.2792 5.05048 1.58834
O -17.948 5.85838 2.96877
O -14.3696 -11.9836 0.408675
O -4.18191 18.2408 0.429612
O -13.85 4.55685 3.06735
O -11.9357 -9.20933 0.0249806
O -2.78772 14.5063 0.672731
O -16.7516 0.0507248 -5.30445
Si -18.3601 -0.0938272 -5.01611
Si -15.1793 -0.369348 -5.14337
O -16.6501 2.12136 -3.02829
Si -18.1589 2.70618 -3.38058
Si -15.0323 1.89782 -3.18867
O -18.6554 2.95378 -1.8017
O -12.1142 -14.3006 -4.13293
O -7.29782 17.1737 -4.41588
O -14.4186 2.23605 -1.73336
O -9.35263 -11.8613 -3.79864
O -6.35105 13.5372 -4.8102
O -16.6901 -2.1095 -0.715948
Si -18.2037 -2.68133 -0.360979
Si -15.07 -1.9042 -0.555655
O -16.7523 -0.0369932 1.56592
Si -18.3585 0.124238 1.27452
Si -15.1747 0.36227 1.40197
O -18.8857 0.0198716 2.86023
O -9.89819 -15.7858 0.614908
O -9.63592 16.0834 0.442072
O -14.5851 -0.00886944 2.85979
O -8.37364 -12.3535 0.320593
O -7.09398 12.8154 0.626884
O -15.9986 -5.17931 -5.46451
Si -17.4936 -5.77623 -5.12698
Si -14.3681 -5.06705 -5.33528
O -16.5551 -3.21005 -3.18022
Si -18.1587 -3.03091 -3.51729
Si -14.9833 -2.8456 -3.41608
O -18.7039 -2.91854 -1.94048
O -7.12101 -17.2651 -3.96345
O -12.2926 14.1311 -4.31829
O -14.4583 -2.25498 -2.00846
O -5.44123 -14.2858 -3.52468
O -9.994 10.7038 -4.60287
O -15.0165 -7.58234 -0.739668
Si -16.494 -8.21748 -0.394838
Si -13.7739 -6.52085 -0.606102
O -16.1931 -4.75331 1.54813
Si -17.5897 -5.52488 1.16739
Si -14.6639 -4.29912 1.23587
O -18.0406 -5.83843 2.75137
O -4.40464 -18.046 0.794473
O -14.1228 12.3021 0.573701
O -13.9321 -4.58182 2.64774
O -3.53262 -13.8448 0.891983
O -10.6985 9.99888 0.857598
O -13.3784 -10.2573 -5.45415
Si -14.8507 -10.9233 -5.09036
Si -12.0777 -9.26919 -5.29812
O -14.8576 -8.03726 -3.18496
Si -16.3958 -8.46369 -3.56263
Si -13.4538 -7.27996 -3.49571
O -16.9337 -8.55418 -1.97744
O -1.49994 -18.7106 -3.90813
O -16.0775 9.64741 -4.18671
O -13.1262 -6.5635 -2.08621
O -1.11089 -14.5207 -3.95285
O -12.8129 7.10149 -4.37227
O -11.8709 -11.8598 -0.566435
Si -13.112 -12.8937 -0.273446
Si -11.0496 -10.4509 -0.422309
O -14.0279 -9.39279 1.53913
Si -15.0414 -10.6509 1.21223
Si -12.654 -8.54772 1.30023
O -15.365 -11.1059 2.78872
O 1.5403 -18.6761 0.74054
O -17.1703 7.31072 0.671194
O -11.8749 -8.59582 2.71177
O 1.4894 -14.3697 0.798646
O -13.5343 6.35535 1.0644
O -9.53801 -13.9572 -5.29105
Si -10.7791 -14.9787 -4.92105
Si -8.7042 -12.5713 -5.08593
O -11.9863 -11.7859 -3.1738
Si -13.0088 -13.0381 -3.44869
Si -10.5822 -10.9673 -3.34215
O -13.4331 -13.3354 -1.85659
O 4.37547 -18.5378 -4.07302
O -18.2429 4.19764 -4.17453
O -10.3985 -10.2892 -1.89001
O 3.09768 -14.625 -4.33079
O -14.5105 2.79592 -4.41757
O -7.50168 -14.8795 -0.229948
Si -8.4068 -16.2372 -0.0548072
Si -7.16409 -13.2816 -0.134482
O -10.4261 -13.2242 1.70021
Si -10.9911 -14.7392 1.37945
Si -9.3733 -11.9901 1.52044
O -11.2003 -15.2835 2.9483
O 7.35225 -17.4336 0.664712
O -18.5907 1.65835 0.596688
O -8.71287 -11.7921 2.97235
O 6.49488 -13.7649 1.03346
O -14.9115 1.8659 0.956785
O -4.72761 -16.1548 -5.05749
Si -5.63031 -17.4832 -4.74541
Si -4.55077 -14.5722 -4.82387
O -7.9291 -14.8469 -2.9567
Si -8.38768 -16.3932 -3.2423
Si -6.81971 -13.6645 -3.07545
O -8.6087 -16.7826 -1.62593
O 9.8489 -16.4262 -4.13821
O -18.6169 -1.62444 -4.34003
O -6.74446 -12.9421 -1.64788
O 7.35348 -13.1466 -4.36199
O -14.9415 -1.877 -4.69791
O -2.84351 -16.229 0.0817221
Si -2.87255 -17.884 0.0696664
Si -2.36596 -14.6533 0.130433
O -5.26243 -15.6807 1.3942
Si -5.73337 -17.267 1.51633
Si -4.91161 -14.0933 1.68628
O -5.85303 -17.8199 3.08988
O 12.4285 -14.4639 0.640311
O -18.3087 -4.17602 0.427333
O -4.79077 -13.7937 3.26046
O 10.4848 -11.2683 1.05468
O -14.5672 -2.80781 0.676672
O -0.459074 -16.8892 -5.06158
Si -0.0514938 -18.4449 -4.76012
Si -0.0721548 -15.3407 -4.85174
O -2.50048 -16.4485 -2.77379
Si -2.84473 -18.0335 -3.1323
Si -2.27146 -14.8236 -2.88837
O -2.94046 -18.4381 -1.50672
O 14.3715 -12.6408 -4.19393
O -17.2797 -7.2958 -4.41051
O -2.18081 -14.199 -1.409
O 10.9166 -10.3544 -4.38259
O -13.6516 -6.38736 -4.8141
O 2.67216 -16.5002 0.0394196
Si 2.95488 -18.133 -0.0429238
Si 2.71144 -14.856 -0.121796
O 0.3461 -16.6132 1.3574
Si 0.0712392 -18.238 1.49457
Si 0.278207 -14.9977 1.64331
O 0.0233202 -18.8135 3.06578
O 16.2681 -10.0169 0.518928
O -16.1882 -9.66299 0.436724
O 0.391216 -14.701 3.21945
O 13.0038 -7.48644 0.830296
O -12.923 -7.12121 0.619467
O 4.88202 -16.3814 -5.247
Si 5.66899 -17.781 -4.87527
Si 4.53158 -14.8093 -5.00308
O 2.99585 -16.7171 -2.9322
Si 2.90985 -18.3186 -3.24461
Si 2.34344 -15.2415 -3.06704
O 2.95802 -18.7087 -1.61421
O 17.3258 -7.50094 -4.3614
O -14.2781 -12.3134 -4.30482
O 2.51584 -14.4899 -1.66804
O 13.3175 -6.42658 -4.55614
O -10.8432 -10.0248 -4.61445
O 8.24308 -15.0088 -0.478084
Si 8.5767 -16.5894 -0.155815
Si 7.44733 -13.6036 -0.24626
O 5.27084 -16.094 1.72051
Si 5.83526 -17.6014 1.411
Si 5.17644 -14.4701 1.56992
O 5.92954 -18.189 2.97875
O 18.3512 -4.52241 0.344558
O -12.3795 -14.1726 0.57107
O 4.79903 -14.0497 3.07519
O 14.4025 -3.30683 0.582187
O -10.0742 -10.73 0.821919
O 9.63141 -14.257 -5.25073
Si 10.8623 -15.2973 -4.90806
Si 8.7951 -12.8811 -5.0002
O 7.77626 -15.2287 -2.97379
Si 8.38673 -16.7122 -3.32847
Si 6.74064 -13.9723 -3.13174
O 8.67704 -17.1423 -1.73404
O 18.4759 -1.64864 -4.4613
O -9.82754 -16.1214 -4.09849
O 6.77467 -13.2885 -1.67356
O 14.2086 -1.45347 -4.44689
O -7.31045 -12.8261 -4.34604
O 12.4052 -11.9236 -0.583141
Si 13.2796 -13.2556 -0.193739
Si 11.2575 -10.8169 -0.274992
O 10.0636 -13.8636 1.74346
Si 11.0526 -15.1251 1.38445
Si 9.45514 -12.3519 1.58876
O 11.2934 -15.6226 2.96741
O 18.5624 1.34239 0.171512
O -7.26822 -17.1859 0.783623
O 8.86051 -12.086 3.06401
O 14.3492 0.949557 0.19246
O -5.99364 -13.167 0.952265
O 13.4134 -10.6966 -5.30687
Si 14.9348 -11.2377 -4.97898
Si 12.1809 -9.65583 -5.0748
O 12.0458 -12.1764 -3.03323
Si 13.095 -13.3963 -3.3667
Si 10.6348 -11.3535 -3.15649
O 13.5428 -13.7232 -1.78361
O 17.9483 4.29639 -4.53607
O -4.34086 -18.2051 -3.90405
O 10.4675 -10.73 -1.67761
O 13.7371 3.51438 -4.59014
O -3.27575 -14.1643 -3.95118
O 15.0135 -8.06061 -0.602539
Si 16.5451 -8.57084 -0.325573
Si 13.808 -6.97434 -0.457034
O 14.0493 -9.80137 1.68847
Si 15.1351 -10.9979 1.32023
Si 12.6957 -8.88776 1.53532
O 15.4726 -11.4113 2.90821
O 17.1868 6.98654 0.209111
O -1.45464 -18.4694 0.789249
O 11.9797 -8.90717 2.97654
O 14.168 5.32072 -0.229051
O -1.06393 -14.3676 1.02823
O 15.8007 -5.48921 -5.02917
Si 17.385 -5.96968 -5.09751
Si 14.1799 -5.28354 -5.26442
O 15.0473 -7.78854 -3.24606
Si 16.4127 -8.65436 -3.50835
Si 13.4472 -7.4952 -3.37238
O 16.9544 -8.82791 -1.93151
O 15.7458 9.80518 -4.36069
O 1.43683 -18.7265 -3.98903
O 13.0857 -6.98771 -1.89037
O 12.3175 8.34568 -4.05846
O 0.845564 -15.3725 -3.53889
O 16.5037 -3.17164 -0.792841
Si 18.1071 -3.06154 -0.488731
Si 15.0139 -2.54389 -0.680844
O 16.2481 -4.97051 1.54693
Si 17.6089 -5.81134 1.17319
Si 14.67 -4.70494 1.30255
O 17.9547 -6.06049 2.79529
O 14.2806 12.0182 0.38221
O 4.50683 -18.3032 0.622226
O 13.8721 -5.04579 2.6436
O 11.8249 9.28003 0.0505544
O 4.02439 -14.1871 0.496969
O 16.4597 -0.48167 -5.15001
Si 18.0777 -0.179549 -5.23892
Si 14.847 -0.317717 -5.3815
O 16.2687 -2.98511 -3.8746
Si 17.9215 -3.06857 -3.70183
Si 14.6432 -2.77757 -3.65321
O 18.4813 -3.09064 -2.12419
O 11.9782 14.3022 -4.15341
O 7.151 -17.6021 -4.07273
O 14.283 -2.71021 -2.09308
O 9.18714 11.894 -3.76815
O 5.30165 -14.3637 -3.66783
O 16.3238 2.29946 8.52491
Si 17.9032 2.69523 8.85468
Si 14.6892 2.12771 8.62019
O 16.6926 0.284932 10.7497
Si 18.2589 -0.100519 10.4792
Si 15.1413 -0.110506 10.5565
O 18.6467 -0.156932 12.1107
O 9.93826 15.9139 10.0203
O 10.0703 -16.256 10.0498
O 14.5171 -0.507067 11.9772
O 8.25857 12.2929 9.78203
O 8.40673 -12.4862 9.84273
O 15.5941 5.16951 4.29429
Si 17.1845 5.62785 4.19368
Si 13.9955 4.85719 4.01986
O 16.1151 2.80123 5.7174
Si 17.7662 2.77101 5.65819
Si 14.5444 2.32918 5.6045
O 18.3217 2.80933 7.23501
O 6.99432 17.3655 5.39373
O 12.1953 -14.642 5.37391
O 14.0765 2.07913 7.13172
O 5.07044 14.1554 5.8018
O 9.40812 -12.2189 5.7898
O 14.7823 7.81166 8.66868
Si 16.33 8.26582 8.95505
Si 13.5839 6.71745 8.78722
O 16.0427 4.61018 10.7735
Si 17.382 5.49644 10.459
Si 14.4602 4.43374 10.5335
O 17.7339 5.72879 12.0802
O 4.55699 18.26 10.0044
O 14.5349 -12.3856 10.0157
O 13.6868 4.69242 11.9126
O 4.05033 14.1498 9.82347
O 11.8514 -9.45051 9.75046
O 13.1907 10.3662 4.00298
Si 14.7124 10.9079 4.33193
Si 11.9486 9.32461 4.18773
O 14.8175 7.42368 5.96099
Si 16.1848 8.30893 5.76895
Si 13.2164 7.11194 5.85003
O 16.729 8.49551 7.34242
O 1.29739 18.7448 5.30023
O 15.9663 -10.1452 5.27344
O 12.8648 6.67115 7.35539
O 0.501097 14.6982 5.59127
O 12.5909 -8.75906 5.65239
O 11.7654 11.9146 8.88943
Si 13.0256 12.9272 9.16376
Si 10.9379 10.5156 9.0579
O 13.9203 9.4415 11.0029
Si 14.9479 10.678 10.6336
Si 12.5255 8.62216 10.8004
O 15.2589 11.1034 12.2237
O -1.29633 18.7314 9.87278
O 17.4183 -7.30368 9.85124
O 11.7477 8.64822 12.2051
O -0.479703 14.6863 9.58886
O 14.3219 -5.54612 9.44784
O 9.38488 13.9793 4.17541
Si 10.6508 14.9828 4.50346
Si 8.53066 12.6113 4.4151
O 11.8367 11.8062 6.28491
Si 12.8807 13.0382 5.98878
Si 10.4207 10.997 6.14063
O 13.3254 13.3528 7.57246
O -4.55256 18.2118 5.17027
O 18.1224 -4.62166 5.09299
O 10.2564 10.3411 7.60598
O -4.02255 14.1081 5.3587
O 13.8721 -3.96738 5.06205
O 8.0408 14.8118 8.90179
Si 8.47403 16.348 9.27952
Si 7.27512 13.4127 9.21312
O 10.251 13.3172 11.1715
Si 10.9248 14.7858 10.8065
Si 9.25382 12.0234 11.0164
O 11.1095 15.3011 12.3888
O -6.97022 17.3095 9.77558
O 18.5299 -1.59237 9.71402
O 8.57665 11.8282 12.4676
O -5.05326 14.0791 9.38331
O 15.1098 -1.04146 9.2519
O 4.7579 16.1675 4.16882
Si 5.53875 17.559 4.54967
Si 4.29836 14.6402 4.48149
O 7.58372 14.9755 6.45778
Si 8.22642 16.4494 6.11172
Si 6.51353 13.7404 6.32541
O 8.56655 16.8863 7.69447
O -9.91772 15.8402 5.16051
O 18.3152 1.34615 4.92428
O 6.55412 13.0909 7.80468
O -8.24434 12.2229 5.40636
O 14.2883 1.08502 4.61979
O 3.22214 16.5323 8.89766
Si 3.04789 18.1364 9.23482
Si 2.8516 14.9619 9.13366
O 5.1874 15.9681 11.1826
Si 5.79137 17.46 10.844
Si 5.06887 14.3381 11.0544
O 5.85525 18.0076 12.4274
O -11.9417 14.2734 9.85025
O 18.0842 4.19076 9.62563
O 4.58065 13.9054 12.5331
O -9.17896 11.8286 9.49456
O 14.0526 3.13893 9.69106
O 0.0481824 16.74 4.15113
Si -0.108118 18.3467 4.44272
Si -0.357033 15.164 4.31497
O 2.11841 16.6722 6.43462
Si 2.69706 18.1831 6.07856
Si 1.9067 15.0529 6.27483
O 2.93667 18.6822 7.65811
O -14.2657 11.9516 5.32838
O 17.1183 7.16323 4.92473
O 2.25715 14.4393 7.72685
O -11.8244 9.18585 5.68429
O 13.0919 5.96956 4.73505
O -2.10843 16.644 8.74497
Si -2.69033 18.1539 9.09765
Si -1.88917 15.0256 8.90493
O -0.0392668 16.7395 11.0218
Si 0.110677 18.3473 10.7333
Si 0.376695 15.166 10.8612
O -0.00174571 18.8734 12.3188
O -15.8338 9.92872 10.0179
O 16.0773 9.70879 9.812
O 0.0135285 14.5727 12.3195
O -12.219 8.24946 9.77271
O 12.7579 7.22372 10.0608
O -5.18131 15.9076 3.98977
Si -5.78003 17.4014 4.33109
Si -5.04453 14.2791 4.12776
O -3.20686 16.5001 6.28089
Si -3.04315 18.1051 5.94175
Si -2.82866 14.932 6.04321
O -2.93707 18.6512 7.51879
O -17.3068 6.98366 5.40314
O 14.1542 12.2993 5.14154
O -2.23014 14.4127 7.44998
O -14.0777 5.06128 5.79485
O 10.692 10.0283 4.88932
O -7.56158 14.9091 8.72513
Si -8.19846 16.3879 9.06268
Si -6.4986 13.6676 8.86042
O -4.74869 16.1071 11.0081
Si -5.52107 17.5031 10.6268
Si -4.27971 14.5818 10.6965
O -5.84408 17.9494 12.2099
O -18.2128 4.56757 10.0084
O 12.3111 14.2016 10.0217
O -4.5509 13.849 12.1109
O -14.1102 4.02701 9.82014
O 9.99984 10.7832 10.3323
O -10.2393 13.2405 4.01497
Si -10.9028 14.7165 4.36742
Si -9.24425 11.9457 4.17661
O -8.00311 14.7456 6.2784
Si -8.45275 16.2763 5.89655
Si -7.24998 13.3388 5.96628
O -8.54406 16.8186 7.48
O -18.7403 1.31402 5.30617
O 9.66959 16.1355 5.27895
O -6.53756 13.0167 7.38054
O -14.697 0.487049 5.58988
O 7.10634 12.8879 5.09722
O -11.8246 11.7706 8.88599
Si -12.8519 13.0165 9.17478
Si -10.4228 10.9435 9.04869
O -9.36524 13.9154 11.0108
Si -10.6182 14.9322 10.6737
Si -8.51831 12.542 10.7744
O -11.0826 15.2406 12.2501
O -18.761 -1.28001 9.87902
O 7.31032 17.2375 10.128
O -8.56783 11.7556 12.1839
O -14.7109 -0.499323 9.58908
O 6.38643 13.6169 10.5332
O -13.9104 9.37449 4.16775
Si -14.9256 10.6287 4.50503
Si -12.5381 8.52576 4.40433
O -11.7635 11.8317 6.29293
Si -13.0081 12.8607 6.00407
Si -10.9383 10.4289 6.13013
O -13.302 13.3109 7.58945
O -18.2886 -4.53887 5.17435
O 4.19226 18.2827 5.29011
O -10.2626 10.268 7.58933
O -14.1761 -4.04822 5.3567
O 2.80699 14.548 5.04095
O -14.7416 8.01055 8.90063
Si -16.2712 8.46404 9.28232
Si -13.3356 7.25582 9.21267
O -13.2345 10.2469 11.1634
Si -14.7095 10.9127 10.8113
Si -11.941 9.25005 11.0018
O -15.2335 11.0931 12.3903
O -17.4041 -6.98154 9.78564
O 1.64263 18.5989 10.0577
O -11.7515 8.57423 12.4567
O -14.1784 -5.07469 9.37969
O 1.88383 14.925 10.4162
O -16.1072 4.76061 4.17085
Si -17.5022 5.53491 4.55189
Si -14.5829 4.28816 4.48233
O -14.9059 7.57044 6.45403
Si -16.3834 8.21026 6.11625
Si -13.6653 6.50642 6.31788
O -16.8136 8.55629 7.69897
O -15.9724 -9.92991 5.15734
O -1.64192 18.5827 5.12032
O -13.014 6.54434 7.79771
O -12.3403 -8.27039 5.39663
O -1.86163 14.9065 4.75975
O -16.5034 3.21642 8.89846
Si -18.109 3.05803 9.23711
Si -14.9362 2.83422 9.13609
O -15.9074 5.19138 11.1884
Si -17.4001 5.79327 10.8477
Si -14.2792 5.05048 11.0502
O -17.948 5.85838 12.4306
O -14.3696 -11.9836 9.87051
O -4.18191 18.2408 9.89144
O -13.85 4.55685 12.5292
O -11.9357 -9.20933 9.48681
O -2.78772 14.5062 10.1346
O -16.7516 0.050724 4.15738
Si -18.3601 -0.0938274 4.44572
Si -15.1793 -0.369349 4.31846
O -16.6501 2.12136 6.43354
Si -18.1589 2.70619 6.08125
Si -15.0323 1.89782 6.27316
O -18.6554 2.95378 7.66014
O -12.1142 -14.3006 5.3289
O -7.29782 17.1737 5.04595
O -14.4186 2.23605 7.72847
O -9.35263 -11.8613 5.66318
O -6.35105 13.5372 4.65163
O -16.6901 -2.1095 8.74588
Si -18.2037 -2.68133 9.10085
Si -15.07 -1.9042 8.90618
O -16.7523 -0.0369929 11.0277
Si -18.3585 0.124238 10.7364
Si -15.1747 0.362269 10.8638
O -18.8857 0.0198717 12.3221
O -9.89819 -15.7858 10.0767
O -9.63592 16.0834 9.9039
O -14.5851 -0.0088696 12.3216
O -8.37364 -12.3534 9.78244
O -7.09398 12.8154 10.0887
O -15.9986 -5.17931 3.99732
Si -17.4936 -5.77623 4.33485
Si -14.3681 -5.06705 4.12654
O -16.5551 -3.21005 6.28161
Si -18.1587 -3.03091 5.94454
Si -14.9833 -2.8456 6.04575
O -18.7039 -2.91855 7.52135
O -7.121 -17.2651 5.49839
O -12.2926 14.1311 5.14354
O -14.4583 -2.25499 7.45337
O -5.44125 -14.2858 5.93717
O -9.994 10.7038 4.85896
O -15.0165 -7.58234 8.72216
Si -16.494 -8.21748 9.06699
Si -13.7739 -6.52085 8.85573
O -16.1931 -4.75331 11.01
Si -17.5897 -5.52488 10.6292
Si -14.6639 -4.29912 10.6977
O -18.0406 -5.83843 12.2132
O -4.40463 -18.046 10.2563
O -14.1228 12.3021 10.0355
O -13.9321 -4.58182 12.1096
O -3.53261 -13.8448 10.3538
O -10.6985 9.99888 10.3194
O -13.3784 -10.2573 4.00769
Si -14.8507 -10.9233 4.37148
Si -12.0777 -9.26919 4.16372
O -14.8576 -8.03726 6.27687
Si -16.3958 -8.46369 5.8992
Si -13.4538 -7.27996 5.96612
O -16.9337 -8.55417 7.48439
O -1.49994 -18.7106 5.5537
O -16.0775 9.64741 5.27512
O -13.1262 -6.5635 7.37562
O -1.1109 -14.5207 5.50895
O -12.8129 7.10149 5.08957
O -11.8709 -11.8598 8.8954
Si -13.112 -12.8937 9.18839
Si -11.0496 -10.4509 9.03953
O -14.0279 -9.39279 11.001
Si -15.0414 -10.6509 10.6741
Si -12.654 -8.54772 10.7621
O -15.365 -11.1059 12.2506
O 1.5403 -18.6762 10.2024
O -17.1703 7.31072 10.133
O -11.8749 -8.59582 12.1736
O 1.4894 -14.3697 10.2605
O -13.5343 6.35535 10.5262
O -9.53802 -13.9572 4.17076
Si -10.7791 -14.9787 4.54078
Si -8.70421 -12.5713 4.37589
O -11.9863 -11.7859 6.28803
Si -13.0088 -13.0381 6.01315
Si -10.5822 -10.9673 6.11968
O -13.4331 -13.3354 7.60524
O 4.37546 -18.5377 5.38882
O -18.2429 4.19764 5.2873
O -10.3984 -10.2892 7.57183
O 3.09768 -14.625 5.13105
O -14.5105 2.79592 5.04426
O -7.50168 -14.8795 9.23189
Si -8.40681 -16.2372 9.40702
Si -7.1641 -13.2816 9.32734
O -10.4261 -13.2242 11.1621
Si -10.9911 -14.7392 10.8413
Si -9.3733 -11.9901 10.9823
O -11.2003 -15.2835 12.4101
O 7.35224 -17.4336 10.1265
O -18.5907 1.65835 10.0585
O -8.71287 -11.7921 12.4342
O 6.49485 -13.7649 10.4953
O -14.9115 1.8659 10.4186
O -4.72759 -16.1548 4.40438
Si -5.6303 -17.4832 4.71643
Si -4.55076 -14.5722 4.638
O -7.92912 -14.8469 6.50513
Si -8.38768 -16.3932 6.21953
Si -6.81973 -13.6645 6.38637
O -8.60871 -16.7826 7.8359
O 9.84891 -16.4262 5.32362
O -18.6169 -1.62444 5.1218
O -6.74449 -12.9421 7.81394
O 7.35348 -13.1466 5.09983
O -14.9415 -1.877 4.76392
O -2.8435 -16.229 9.54353
Si -2.87254 -17.884 9.5315
Si -2.36593 -14.6533 9.59228
O -5.26246 -15.6807 10.856
Si -5.73337 -17.267 10.9781
Si -4.9116 -14.0933 11.1481
O -5.85303 -17.8199 12.5517
O 12.4285 -14.4639 10.1022
O -18.3087 -4.17602 9.88917
O -4.79078 -13.7937 12.7223
O 10.4848 -11.2684 10.5165
O -14.5672 -2.80781 10.1385
O -0.459085 -16.8892 4.4002
Si -0.0514974 -18.4449 4.7017
Si -0.072178 -15.3407 4.61004
O -2.50047 -16.4485 6.68806
Si -2.84472 -18.0335 6.32953
Si -2.27142 -14.8236 6.57348
O -2.94044 -18.4381 7.95511
O 14.3715 -12.6408 5.26791
O -17.2797 -7.2958 5.05132
O -2.18073 -14.199 8.05285
O 10.9166 -10.3544 5.07927
O -13.6516 -6.38736 4.64773
O 2.67207 -16.5002 9.50117
Si 2.95487 -18.133 9.4189
Si 2.7114 -14.856 9.34002
O 0.346145 -16.6132 10.8193
Si 0.0712454 -18.238 10.9564
Si 0.278225 -14.9977 11.1052
O 0.0233223 -18.8135 12.5276
O 16.2681 -10.0169 9.98075
O -16.1882 -9.66299 9.89855
O 0.391242 -14.701 12.6813
O 13.0037 -7.48642 10.2921
O -12.923 -7.12121 10.0813
O 4.88201 -16.3814 4.21486
Si 5.66899 -17.781 4.58657
Si 4.53159 -14.8093 4.45879
O 2.99581 -16.7171 6.52962
Si 2.90984 -18.3185 6.21722
Si 2.3434 -15.2415 6.39477
O 2.95801 -18.7087 7.84761
O 17.3258 -7.50096 5.1004
O -14.2781 -12.3134 5.15701
O 2.51577 -14.4899 7.79378
O 13.3176 -6.42669 4.90558
O -10.8432 -10.0248 4.84739
O 8.24309 -15.0088 8.98377
Si 8.5767 -16.5894 9.30602
Si 7.44734 -13.6036 9.21558
O 5.27088 -16.094 11.1824
Si 5.83526 -17.6014 10.8728
Si 5.17643 -14.4701 11.0317
O 5.92953 -18.189 12.4406
O 18.3512 -4.52243 9.80642
O -12.3795 -14.1726 10.0329
O 4.79899 -14.0497 12.537
O 14.4025 -3.30689 10.0441
O -10.0742 -10.73 10.2838
O 9.63142 -14.257 4.21108
Si 10.8623 -15.2974 4.55376
Si 8.79509 -12.8811 4.4616
O 7.77629 -15.2287 6.48805
Si 8.38673 -16.7122 6.13337
Si 6.74067 -13.9723 6.3301
O 8.67705 -17.1423 7.7278
O 18.4759 -1.64868 5.00053
O -9.82755 -16.1214 5.36333
O 6.7747 -13.2884 7.78828
O 14.2086 -1.45359 5.01503
O -7.31046 -12.8261 5.11578
O 12.4052 -11.9237 8.87868
Si 13.2796 -13.2556 9.26809
Si 11.2575 -10.817 9.18684
O 10.0636 -13.8636 11.2053
Si 11.0526 -15.1251 10.8463
Si 9.45515 -12.3519 11.0506
O 11.2934 -15.6226 12.4293
O 18.5624 1.3424 9.6333
O -7.26822 -17.1859 10.2454
O 8.86053 -12.086 12.5259
O 14.3491 0.949581 9.65413
O -5.99362 -13.167 10.4141
O 13.4134 -10.6966 4.15501
Si 14.9348 -11.2377 4.48287
Si 12.181 -9.65583 4.38709
O 12.0458 -12.1764 6.4286
Si 13.095 -13.3963 6.09513
Si 10.6348 -11.3535 6.30534
O 13.5427 -13.7232 7.67822
O 17.9483 4.29641 4.92576
O -4.34086 -18.2051 5.55779
O 10.4675 -10.73 7.78423
O 13.737 3.51439 4.87151
O -3.27575 -14.1643 5.5107
O 15.0135 -8.06056 8.85929
Si 16.5451 -8.57082 9.13626
Si 13.808 -6.97429 9.00479
O 14.0493 -9.80134 11.1503
Si 15.1351 -10.9979 10.782
Si 12.6957 -8.88775 10.9971
O 15.4726 -11.4113 12.37
O 17.1868 6.98654 9.67097
O -1.45464 -18.4694 10.2511
O 11.9797 -8.90717 12.4383
O 14.168 5.32064 9.23291
O -1.06392 -14.3676 10.4901
O 15.8008 -5.48915 4.43247
Si 17.385 -5.96972 4.36428
Si 14.1799 -5.28363 4.19727
O 15.0474 -7.78856 6.21581
Si 16.4127 -8.65438 5.95348
Si 13.4473 -7.49519 6.08944
O 16.9545 -8.8279 7.53033
O 15.7458 9.80517 5.10116
O 1.43683 -18.7265 5.47279
O 13.0857 -6.98762 7.57144
O 12.3175 8.34562 5.40344
O 0.84553 -15.3725 5.9229
O 16.5038 -3.17176 8.669
Si 18.1072 -3.06158 8.97309
Si 15.0139 -2.54406 8.78095
O 16.2481 -4.97053 11.0089
Si 17.6089 -5.81135 10.6351
Si 14.67 -4.70495 10.7645
O 17.9547 -6.06047 12.2572
O 14.2806 12.0182 9.84403
O 4.50682 -18.3032 10.084
O 13.8721 -5.04574 12.1056
O 11.8249 9.28005 9.51232
O 4.02439 -14.1871 9.95873
O 16.4596 -0.481344 4.31236
Si 18.0777 -0.179541 4.22301
Si 14.8469 -0.317703 4.08057
O 16.2687 -2.98522 5.58719
Si 17.9215 -3.06863 5.75999
Si 14.6432 -2.77775 5.80859
O 18.4813 -3.0907 7.33763
O 11.9782 14.3022 5.30841
O 7.15099 -17.6021 5.38912
O 14.283 -2.7105 7.36873
O 9.18711 11.894 5.69366
O 5.30167 -14.3637 5.79404
O 16.3238 2.29938 17.9868
Si 17.9033 2.69519 18.3165
Si 14.6893 2.12753 18.082
O 16.6926 0.284984 20.2117
Si 18.2589 -0.100516 19.9411
Si 15.1414 -0.11046 20.0186
O 18.6467 -0.156955 21.5726
O 9.93825 15.9139 19.4821
O 10.0703 -16.256 19.5116
O 14.5172 -0.507051 21.4393
O 8.25857 12.2929 19.2438
O 8.40673 -12.4863 19.3045
O 15.594 5.1699 13.7564
Si 17.1845 5.62787 13.6556
Si 13.9955 4.85721 13.4819
O 16.1151 2.80122 15.1794
Si 17.7662 2.77099 15.12
Si 14.5445 2.32907 15.0663
O 18.3218 2.80928 16.6968
O 6.99432 17.3655 14.8556
O 12.1953 -14.642 14.8357
O 14.0766 2.07875 16.5935
O 5.07042 14.1554 15.2636
O 9.40814 -12.2189 15.2517
O 14.7823 7.81175 18.1305
Si 16.33 8.26585 18.4169
Si 13.5839 6.71757 18.2491
O 16.0426 4.61012 20.2351
Si 17.382 5.49642 19.9208
Si 14.4601 4.43371 19.9951
O 17.7339 5.72876 21.542
O 4.55699 18.26 19.4662
O 14.5349 -12.3856 19.4775
O 13.6868 4.69239 21.3743
O 4.05033 14.1498 19.2853
O 11.8514 -9.4505 19.2123
O 13.1907 10.3662 13.4647
Si 14.7124 10.9079 13.7937
Si 11.9486 9.32465 13.6494
O 14.8175 7.42373 15.4228
Si 16.1848 8.30895 15.2308
Si 13.2163 7.11204 15.3119
O 16.7289 8.49555 16.8043
O 1.29739 18.7448 14.7621
O 15.9662 -10.1451 14.7352
O 12.8648 6.67136 16.8173
O 0.5011 14.6982 15.0531
O 12.5908 -8.75905 15.1142
O 11.7654 11.9146 18.3513
Si 13.0256 12.9272 18.6256
Si 10.938 10.5156 18.5197
O 13.9203 9.44155 20.4648
Si 14.9479 10.678 20.0955
Si 12.5255 8.62219 20.2623
O 15.2589 11.1034 21.6856
O -1.29633 18.7314 19.3346
O 17.4183 -7.30367 19.313
O 11.7477 8.64822 21.667
O -0.479703 14.6863 19.0507
O 14.3219 -5.54615 18.9096
O 9.38488 13.9793 13.6373
Si 10.6508 14.9828 13.9653
Si 8.53067 12.6113 13.877
O 11.8368 11.8061 15.7467
Si 12.8807 13.0381 15.4506
Si 10.4207 10.997 15.6024
O 13.3254 13.3528 17.0343
O -4.55256 18.2118 14.6321
O 18.1224 -4.62161 14.5548
O 10.2565 10.341 17.0678
O -4.02256 14.1081 14.8205
O 13.8721 -3.96726 14.524
O 8.04078 14.8118 18.3636
Si 8.47403 16.348 18.7414
Si 7.27511 13.4127 18.675
O 10.2511 13.3172 20.6333
Si 10.9248 14.7858 20.2683
Si 9.25383 12.0234 20.4782
O 11.1095 15.3011 21.8506
O -6.97022 17.3095 19.2374
O 18.5299 -1.59236 19.1759
O 8.57666 11.8282 21.9294
O -5.05326 14.0791 18.8451
O 15.1098 -1.04134 18.7139
O 4.75791 16.1675 13.6306
Si 5.53875 17.559 14.0115
Si 4.29836 14.6402 13.9433
O 7.5837 14.9755 15.9196
Si 8.22641 16.4494 15.5736
Si 6.51351 13.7404 15.7872
O 8.56655 16.8863 17.1563
O -9.91772 15.8402 14.6223
O 18.3151 1.34613 14.3861
O 6.55409 13.0909 17.2665
O -8.24434 12.2229 14.8682
O 14.2886 1.08514 14.0813
O 3.22215 16.5323 18.3595
Si 3.04789 18.1364 18.6966
Si 2.8516 14.9619 18.5955
O 5.18739 15.9681 20.6445
Si 5.79136 17.46 20.3059
Si 5.06886 14.3381 20.5163
O 5.85525 18.0076 21.8892
O -11.9417 14.2734 19.3121
O 18.0842 4.19074 19.0874
O 4.58066 13.9054 21.9949
O -9.17896 11.8286 18.9564
O 14.0526 3.13891 19.1527
O 0.0481803 16.74 13.613
Si -0.108119 18.3467 13.9046
Si -0.357033 15.164 13.7768
O 2.11841 16.6722 15.8965
Si 2.69706 18.1831 15.5404
Si 1.9067 15.0529 15.7367
O 2.93668 18.6822 17.1199
O -14.2657 11.9516 14.7902
O 17.1183 7.16326 14.3866
O 2.25716 14.4393 17.1887
O -11.8244 9.18585 15.1461
O 13.0918 5.96952 14.1971
O -2.10843 16.644 18.2068
Si -2.69033 18.1539 18.5595
Si -1.88917 15.0256 18.3668
O -0.0392628 16.7395 20.4837
Si 0.110678 18.3473 20.1951
Si 0.376697 15.166 20.323
O -0.00174501 18.8734 21.7806
O -15.8338 9.92872 19.4797
O 16.0774 9.70882 19.2739
O 0.0135283 14.5727 21.7814
O -12.219 8.24946 19.2345
O 12.7579 7.22377 19.5228