2880
 Atoms. Timestep: 17831
O 38.5061 -22.0125 2.74566
Si 39.7688 -23.0689 2.7422
Si 36.9812 -21.4073 2.74014
O 36.5605 -25.1359 2.75132
Si 38.065 -25.8043 2.74568
Si 35.3454 -24.0336 2.74369
O 38.0266 -26.7463 4.11215
O 39.2658 -24.6539 2.74362
O 38.0264 -26.7462 1.3796
O 34.5825 -24.2098 4.16271
O 35.8118 -22.5017 2.57764
O 34.4611 -24.3841 1.43017
O 40.5767 -17.8614 0.0098341
Si 41.9433 -18.7793 0.00610455
Si 38.9967 -17.4196 0.00387833
O 38.9701 -21.1717 0.0151129
Si 40.5364 -21.6784 0.00942046
Si 37.6458 -20.2032 0.00758742
O 40.5974 -22.6192 1.37587
O 41.6098 -20.4084 0.0074697
O 40.5971 -22.6191 20.504
O 36.9055 -20.4591 1.42649
O 37.9485 -18.6307 -0.15777
O 36.8034 -20.6447 20.5546
O 43.9708 4.82938 2.73593
Si 45.6131 4.716 2.73144
Si 42.3806 4.42524 2.72906
O 44.2302 1.16033 2.73639
Si 45.8405 1.5025 2.73213
Si 42.5991 1.33783 2.73006
O 46.3633 0.718483 4.09848
O 46.1372 3.13829 2.73151
O 46.3633 0.718391 1.36603
O 42.0858 0.742379 4.14757
O 42.0753 2.85216 2.57116
O 42.0896 0.536735 1.41486
O 43.2166 9.4071 0.00382844
Si 44.8619 9.46409 -0.000811087
Si 41.6767 8.84082 -0.00279441
O 43.8531 5.78444 0.00236227
Si 45.4194 6.2913 -0.00120681
Si 42.2124 5.79232 -0.0035838
O 46.0204 5.56552 1.36512
O 45.5459 7.94891 -0.00134018
O 46.0205 5.56563 20.4933
O 41.7634 5.14618 1.41358
O 41.5352 7.24468 -0.161453
O 41.7881 4.94344 20.5416
O 41.9946 13.8827 2.73621
Si 43.6252 14.1093 2.73175
Si 40.5214 13.1603 2.7299
O 43.0013 10.3449 2.73626
Si 44.5069 11.0109 2.73179
Si 41.3686 10.1833 2.72982
O 45.1794 10.3513 4.09826
O 44.4618 12.6727 2.73129
O 45.1795 10.3509 1.36567
O 40.9884 9.49471 4.14718
O 40.5454 11.5581 2.57105
O 41.0343 9.29469 1.41457
O 40.3173 18.2083 0.00301566
Si 41.9157 18.6022 -0.00138021
Si 38.9268 17.3374 -0.00310734
O 41.6839 14.7932 0.004141
Si 43.1125 15.6113 -0.000830441
Si 40.0766 14.4638 -0.00266111
O 43.8495 15.0246 1.36569
O 42.8961 17.2596 -0.00164147
O 43.8496 15.0242 20.4937
O 39.7693 13.74 1.41482
O 39.1161 15.7463 -0.162233
O 39.8359 13.5452 20.543
O 38.2018 22.3373 2.73373
Si 39.7509 22.8944 2.72974
Si 36.9089 21.3271 2.72773
O 39.9143 19.0818 2.73641
Si 41.2506 20.0432 2.73114
Si 38.3497 18.5879 2.72944
O 42.0443 19.5359 4.09772
O 40.8649 21.6604 2.72991
O 42.0445 19.5353 1.3651
O 38.1186 17.8367 4.14712
O 37.2619 19.7642 2.56886
O 38.2054 17.649 1.41464
O 35.6703 26.225 -0.00140063
Si 37.1533 26.9397 -0.00454957
Si 34.4891 25.0863 -0.00681889
O 37.7107 23.1643 0.00222497
Si 38.9402 24.259 -0.00293183
Si 36.2057 22.511 -0.00486774
O 39.7822 23.8364 1.36361
O 38.3891 25.8276 -0.00411007
O 39.7823 23.836 20.4916
O 36.0535 21.7399 1.41276
O 35.0019 23.5682 -0.165586
O 36.1593 21.5623 20.541
O 32.7494 29.8295 2.72987
Si 34.1502 30.6943 2.72687
Si 31.693 28.5741 2.72467
O 35.0964 26.9967 2.73342
Si 36.2055 28.2132 2.72803
Si 33.6672 26.1908 2.72585
O 37.087 27.8799 4.09447
O 35.4946 29.7162 2.72717
O 37.0867 27.8797 1.36178
O 33.5956 25.4079 4.14337
O 32.3605 27.1175 2.56509
O 33.7193 25.2425 1.41099
O 29.4694 33.1107 -0.00377024
Si 30.7725 34.1168 -0.00671603
Si 28.5498 31.7519 -0.00927333
O 32.0986 30.5373 -0.00016867
Si 33.075 31.8628 -0.00569037
Si 30.7611 29.5871 -0.00783595
O 33.9864 31.6227 1.36073
O 32.2114 33.2837 -0.00633424
O 33.9861 31.6224 20.4887
O 30.7707 28.8016 1.40992
O 29.3653 30.373 -0.169513
O 30.9117 28.6491 20.5383
O 25.8645 36.0312 2.73077
Si 27.0551 37.168 2.72687
Si 25.0923 34.5835 2.72479
O 28.7488 33.7465 2.73041
Si 29.5811 35.167 2.72591
Si 27.5177 32.6621 2.7233
O 30.5128 35.0229 4.09216
O 28.5734 36.4898 2.7263
O 30.5122 35.0231 1.35941
O 27.6087 31.8822 4.14123
O 26.0476 33.298 2.56142
O 27.7652 31.7447 1.40889
O 21.9723 38.556 0.00152104
Si 23.037 39.8116 -0.00346455
Si 21.3572 37.0351 -0.00512825
O 25.0817 36.5874 -0.00103393
Si 25.7598 38.0875 -0.00557668
Si 23.9711 35.3799 -0.00778157
O 26.7016 38.042 1.3607
O 24.6183 39.2968 -0.00483462
O 26.7013 38.042 20.4886
O 24.142 34.6152 1.41092
O 22.4426 35.858 -0.171398
O 24.3145 34.4929 20.5392
O 17.8352 40.6548 2.73714
Si 18.7615 42.0157 2.73162
Si 17.3842 39.0773 2.72991
O 21.1357 39.026 2.73383
Si 21.6516 40.5893 2.72931
Si 20.1585 37.7081 2.72752
O 22.5929 40.6434 4.09566
O 20.3884 41.671 2.73006
O 22.5929 40.6434 1.36298
O 20.4079 36.9668 4.14689
O 18.5883 38.022 2.56263
O 20.5945 36.8621 1.41437
O 13.4989 42.3028 0.00747799
Si 14.2762 43.7541 0.00171142
Si 13.2172 40.6866 -0.000176374
O 16.9534 41.0332 0.00315971
Si 17.3013 42.6422 -0.000802392
Si 16.121 39.6194 -0.00265236
O 18.2316 42.7956 1.36554
O 15.9305 43.5839 3.73718e-05
O 18.2318 42.7958 20.4936
O 16.4473 38.9091 1.41694
O 14.5263 39.7649 -0.167459
O 16.6444 38.8242 20.5449
O 9.01255 43.4823 2.74272
Si 9.6322 45.0075 2.73691
Si 8.90283 41.8454 2.73481
O 12.5817 42.5854 2.7379
Si 12.7579 44.2222 2.7344
Si 11.9034 41.0916 2.73235
O 13.6665 44.4734 4.10073
O 11.2952 45.0135 2.73519
O 13.6669 44.4736 1.36826
O 12.3034 40.42 4.15193
O 10.3022 41.0673 2.56806
O 12.508 40.3564 1.41919
O 4.42686 44.1823 0.0119401
Si 4.88231 45.7643 0.00658809
Si 4.49001 42.5428 0.00433275
O 8.0704 43.6664 0.00772103
Si 8.07317 45.3127 0.00442479
Si 7.55347 42.1093 0.00217902
O 8.95005 45.6584 1.37082
O 6.53535 45.9455 0.00506694
O 8.95056 45.6586 20.499
O 8.02263 41.4836 1.4216
O 5.96363 41.9162 -0.161465
O 8.232 41.4421 20.5495
O -0.207027 44.3967 2.74701
Si 0.0796306 46.0178 2.7416
Si 0.0280386 42.773 2.73971
O 3.47045 44.2663 2.74273
Si 3.30009 45.9037 2.73931
Si 3.12018 42.6635 2.73695
O 4.13574 46.3398 4.10565
O 1.70441 46.3716 2.74007
O 4.13602 46.3401 1.37314
O 3.65323 42.0904 4.15604
O 1.55933 42.3044 2.57404
O 3.86464 42.0713 1.42329
O -4.83785 44.1236 0.0170276
Si -4.72291 45.7659 0.0113093
Si -4.43381 42.5335 0.00949871
O -1.16714 44.38 0.0130406
Si -1.50839 45.9904 0.00916497
Si -1.34719 42.7492 0.00715725
O -0.723193 46.5119 1.37549
O -3.14432 46.2883 0.00985437
O -0.722989 46.5121 20.5036
O -0.756795 42.2352 1.42625
O -2.86176 42.2282 -0.155686
O -0.544593 42.2385 20.5542
O -9.41461 43.3668 2.75321
Si -9.47232 45.012 2.74674
Si -8.84629 41.8277 2.74529
O -5.79099 44.0063 2.74772
Si -6.29909 45.5722 2.744
Si -5.79914 42.3656 2.74204
O -5.57297 46.1731 4.11031
O -7.95718 45.697 2.74488
O -5.57291 46.1733 1.37776
O -5.15782 41.9164 4.16106
O -7.2509 41.6889 2.57963
O -4.94755 41.9418 1.42828
O -13.8868 42.1347 0.0217653
Si -14.1162 43.7649 0.0160601
Si -13.1608 40.6635 0.013977
O -10.3502 43.1501 0.0180999
Si -11.0193 44.6542 0.0142359
Si -10.1866 41.5176 0.0126408
O -10.3604 45.3278 1.38066
O -12.6812 44.6048 0.0145616
O -10.3599 45.3283 20.5089
O -9.50195 41.1381 1.43181
O -11.5594 40.6923 -0.150132
O -9.29493 41.1855 20.5597
O -18.2065 40.444 2.7548
Si -18.6049 42.0413 2.75009
Si -17.3312 39.0563 2.7479
O -14.7951 41.8216 2.75238
Si -15.6173 43.2478 2.74872
Si -14.4617 40.2151 2.74658
O -15.0324 43.9864 4.11518
O -17.2651 43.0259 2.7489
O -15.032 43.9868 1.38265
O -13.7399 39.9094 4.16522
O -15.7413 39.2512 2.58525
O -13.541 39.9775 1.43247
O -22.3274 38.3129 0.0230014
Si -22.8899 39.86 0.0184096
Si -21.3124 37.0238 0.0161594
O -19.0779 40.038 0.0216244
Si -20.0441 41.3709 0.0176017
Si -18.579 38.475 0.0153685
O -19.5392 42.1664 1.38405
O -21.6599 40.9787 0.0176132
O -19.5388 42.1667 20.5122
O -17.8284 38.2462 1.43361
O -19.7512 37.383 -0.145287
O -17.639 38.3343 20.5616
O -26.2045 35.7653 2.75784
Si -26.9252 37.2455 2.75249
Si -25.0609 34.5888 2.75056
O -23.1521 37.8184 2.75506
Si -24.2517 39.0436 2.75106
Si -22.4931 36.3159 2.74873
O -23.832 39.8874 4.11739
O -25.818 38.4859 2.75145
O -23.8319 39.8875 1.38482
O -21.7222 36.1666 4.16667
O -23.5455 35.108 2.58879
O -21.5439 36.2734 1.43407
O -29.796 32.8284 0.0274769
Si -30.6669 34.2254 0.0220111
Si -28.5359 31.7777 0.020691
O -26.9733 35.1883 0.0239192
Si -28.1948 36.292 0.01998
Si -26.1616 33.7625 0.0179162
O -27.865 37.1748 1.38635
O -29.6946 35.5742 0.0206555
O -27.8651 37.175 20.5143
O -25.3798 33.6937 1.43605
O -27.083 32.452 -0.142755
O -25.2129 33.8188 20.5642
O -33.0602 29.5317 2.76136
Si -34.072 30.8303 2.75678
Si -31.6971 28.6187 2.75459
O -30.4999 32.1745 2.75925
Si -31.83 33.1445 2.75475
Si -29.5439 30.8411 2.75333
O -31.5942 34.057 4.12109
O -33.2463 32.2735 2.75539
O -31.5943 34.0571 1.38842
O -28.76 30.8538 4.17187
O -30.3229 29.4415 2.59151
O -28.6059 30.9968 1.43924
O -35.9617 25.9125 0.0311552
Si -37.1041 27.0979 0.0263763
Si -34.5108 25.1465 0.0239575
O -33.6919 28.8076 0.028329
Si -35.1159 29.6337 0.0243599
Si -32.6015 27.5817 0.0220619
O -34.9768 30.5658 1.39073
O -36.4337 28.6196 0.0249501
O -34.9767 30.566 20.5188
O -31.8229 27.6766 1.44038
O -33.2298 26.1081 -0.138969
O -31.6851 27.8344 20.5685
O -44.0627 4.44939 2.78265
Si -45.6451 4.90344 2.77323
Si -42.4233 4.51346 2.77276
O -43.5487 8.09274 2.7734
Si -45.195 8.0941 2.76919
Si -41.9911 7.57731 2.76682
O -45.5417 8.97039 4.13556
O -45.8272 6.55622 2.77005
O -45.5415 8.97091 1.403
O -41.3649 8.04898 4.18534
O -41.7973 5.98726 2.6053
O -41.3246 8.25509 1.45263
O -44.2756 -0.185011 0.0416594
Si -45.8968 0.101216 0.038212
Si -42.652 0.0508826 0.0354884
O -44.1467 3.49309 0.0443213
Si -45.7839 3.32159 0.0405398
Si -42.5437 3.14335 0.0399371
O -46.2202 4.15571 1.40767
O -46.2512 1.72579 0.0388972
O -46.2209 4.15818 20.5357
O -41.9714 3.67491 1.46005
O -42.1842 1.58285 -0.126423
O -41.9516 3.88983 20.588
O -44.0028 -4.81515 2.77799
Si -45.6451 -4.70071 2.773
Si -42.4125 -4.41165 2.771
O -44.2588 -1.14522 2.77376
Si -45.8693 -1.48645 2.77084
Si -42.6279 -1.3247 2.76811
O -46.3908 -0.700735 4.13679
O -46.1675 -3.12219 2.77194
O -46.3909 -0.701936 1.40428
O -42.1137 -0.731821 4.18608
O -42.1064 -2.83944 2.60801
O -42.1172 -0.523674 1.45345
O -43.2469 -9.39245 0.0472823
Si -44.8922 -9.44999 0.0423512
Si -41.7075 -8.8252 0.0403999
O -43.8855 -5.76932 0.0441757
Si -45.4516 -6.27687 0.0405147
Si -42.2448 -5.77763 0.0384714
O -46.0524 -5.55076 1.40687
O -45.577 -7.93485 0.0409391
O -46.0526 -5.55063 20.535
O -41.7956 -5.1347 1.45684
O -41.5676 -7.22948 -0.121833
O -41.8207 -4.92719 20.5847
O -42.0183 -13.8662 2.78137
Si -43.6486 -14.0948 2.77543
Si -40.5462 -13.1417 2.77412
O -43.0306 -10.3293 2.77945
Si -44.5353 -10.9972 2.77499
Si -41.398 -10.1665 2.77297
O -45.2085 -10.3381 4.14151
O -44.4874 -12.6592 2.77451
O -45.2088 -10.3373 1.40904
O -41.0183 -9.4797 4.19117
O -40.5732 -11.54 2.61253
O -41.065 -9.27645 1.45844
O -40.3319 -18.1883 0.0479199
Si -41.9296 -18.5851 0.0424772
Si -38.9432 -17.3146 0.0411575
O -41.7059 -14.7756 0.0478482
Si -43.133 -15.5964 0.0428036
Si -40.0991 -14.4437 0.0414754
O -43.871 -15.0108 1.40937
O -42.9128 -17.2444 0.0420248
O -43.8714 -15.0102 20.5375
O -39.7929 -13.7212 1.45974
O -39.1364 -15.7242 -0.119878
O -39.8606 -13.5237 20.5878
O -38.2055 -22.3116 2.7777
Si -39.7534 -22.8722 2.77424
Si -36.9151 -21.2982 2.77209
O -39.9267 -19.0603 2.78028
Si -41.2608 -20.0249 2.77503
Si -38.3631 -18.5631 2.77373
O -42.0558 -19.5191 4.14151
O -40.8706 -21.641 2.77422
O -42.0559 -19.5188 1.40894
O -38.1336 -17.8125 4.19195
O -37.2725 -19.7364 2.61195
O -38.2215 -17.6233 1.45933
O -35.6633 -26.1924 0.0441184
Si -37.1445 -26.9108 0.0410409
Si -34.4852 -25.0505 0.03852
O -37.7121 -23.1369 0.0470925
Si -38.9388 -24.2348 0.0416885
Si -36.2087 -22.48 0.0396077
O -39.7821 -23.8143 1.40809
O -38.3833 -25.8019 0.0409397
O -39.782 -23.814 20.5362
O -36.0583 -21.709 1.45751
O -35.0024 -23.5341 -0.121861
O -36.1652 -21.5309 20.5857
O -32.7324 -29.7886 2.77673
Si -34.1309 -30.6571 2.77257
Si -31.6796 -28.5303 2.77023
O -35.0874 -26.9621 2.77871
Si -36.1932 -28.1817 2.77361
Si -33.6603 -26.1526 2.7711
O -37.0754 -27.851 4.14017
O -35.478 -29.6827 2.7726
O -37.0755 -27.8504 1.40751
O -33.5903 -25.3706 4.18916
O -32.3514 -27.076 2.60894
O -33.7156 -25.2038 1.45674
O -29.4424 -33.0593 0.0431918
Si -30.7428 -34.0688 0.0388632
Si -28.5266 -31.698 0.0367004
O -32.0798 -30.494 0.0441744
Si -33.0524 -31.8222 0.0398898
Si -30.7448 -29.5402 0.0376022
O -33.9643 -31.5849 1.40643
O -32.1843 -33.2403 0.0390358
O -33.9645 -31.5847 20.5344
O -30.7562 -28.7558 1.45591
O -29.3467 -30.3219 -0.12502
O -30.8986 -28.6021 20.5841
O -25.8286 -35.9681 2.77531
Si -27.0164 -37.1079 2.77119
Si -25.06 -34.5186 2.76942
O -28.7197 -33.6924 2.77592
Si -29.5482 -35.1149 2.77142
Si -27.4915 -32.6046 2.76929
O -30.4802 -34.974 4.13778
O -28.5367 -36.4345 2.77103
O -30.4801 -34.9741 1.40516
O -27.5848 -31.8257 4.1876
O -26.0193 -33.2358 2.60697
O -27.7424 -31.6877 1.45512
O -21.9304 -38.4834 0.0430723
Si -22.9927 -39.741 0.0385426
Si -21.3175 -36.9615 0.0368017
O -25.0436 -36.5222 0.044139
Si -25.719 -38.0235 0.0386516
Si -23.9357 -35.312 0.0369284
O -26.6606 -37.9808 1.40504
O -24.575 -39.2302 0.0381447
O -26.6605 -37.9806 20.5331
O -24.1094 -34.5474 1.45544
O -22.4058 -35.7862 -0.126164
O -24.2815 -34.4263 20.5836
O -17.7906 -40.577 2.77495
Si -18.7156 -41.9387 2.77037
Si -17.3403 -38.9993 2.76815
O -21.0919 -38.9522 2.77623
Si -21.6066 -40.5159 2.77109
Si -20.1166 -37.6329 2.76935
O -22.5473 -40.572 4.13761
O -20.3427 -41.5963 2.77023
O -22.5477 -40.5717 1.40503
O -20.369 -36.891 4.1881
O -18.5456 -37.9443 2.60567
O -20.5534 -36.788 1.45557
O -13.4547 -42.2256 0.0407855
Si -14.2322 -43.6768 0.0369776
Si -13.1717 -40.6095 0.0346028
O -16.9078 -40.9553 0.0418629
Si -17.2562 -42.5643 0.0376976
Si -16.0758 -39.5412 0.0355089
O -18.1859 -42.7184 1.4042
O -15.8862 -43.5065 0.0369862
O -18.1862 -42.7184 20.5323
O -16.4048 -38.8297 1.45413
O -14.4807 -39.6864 -0.127589
O -16.5983 -38.7467 20.5822
O -8.97014 -43.4121 2.77351
Si -9.59161 -44.9365 2.76937
Si -8.8576 -41.7753 2.76742
O -12.5369 -42.5096 2.77423
Si -12.7153 -44.1462 2.76957
Si -11.8574 -41.0163 2.76724
O -13.6239 -44.3967 4.13592
O -11.2543 -44.94 2.76908
O -13.6239 -44.3966 1.40341
O -12.2594 -40.3428 4.18561
O -10.2558 -40.9939 2.60472
O -12.4598 -40.2809 1.45309
O -4.38597 -44.1244 0.0402609
Si -4.84464 -45.7055 0.0360932
Si -4.44521 -42.4848 0.0341445
O -8.02758 -43.5989 0.0422343
Si -8.03388 -45.2452 0.036811
Si -7.50785 -42.0427 0.0349114
O -8.91125 -45.5892 1.40332
O -6.49798 -45.8823 0.0360174
O -8.91158 -45.589 20.5313
O -7.97748 -41.415 1.45352
O -5.91737 -41.8536 -0.128407
O -8.18416 -41.3743 20.5816
O 0.247748 -44.3533 2.77285
Si -0.0430341 -45.9736 2.76816
Si 0.0169305 -42.7289 2.76642
O -3.4293 -44.2119 2.77374
Si -3.26308 -45.8497 2.76864
Si -3.07509 -42.6099 2.76671
O -4.09984 -46.2835 4.13509
O -1.66888 -46.3225 2.76789
O -4.10008 -46.2833 1.40249
O -3.60752 -42.0346 4.18533
O -1.51318 -42.2556 2.60294
O -3.81755 -42.0157 1.45288
O 4.8797 -44.0938 0.0380917
Si 4.7604 -45.7357 0.0341926
Si 4.47976 -42.5026 0.0320715
O 1.20807 -44.3397 0.0405279
Si 1.54513 -45.9511 0.0354929
Si 1.39239 -42.7095 0.0337836
O 0.758541 -46.4703 1.40206
O 3.18025 -46.2536 0.0343345
O 0.757958 -46.4702 20.5301
O 0.803221 -42.1934 1.45276
O 2.90831 -42.1929 -0.130843
O 0.591067 -42.1965 20.5809
O 9.45868 -43.3492 2.76961
Si 9.51228 -44.9946 2.76546
Si 8.89437 -41.8087 2.76333
O 5.8335 -43.9791 2.77192
Si 6.3374 -45.5463 2.76674
Si 5.84565 -42.3385 2.76472
O 5.60958 -46.1453 4.13322
O 7.99523 -45.6756 2.76565
O 5.60925 -46.1452 1.40064
O 5.20483 -41.8872 4.18342
O 7.29901 -41.6654 2.60104
O 4.99538 -41.9126 1.45083
O 13.9349 -42.1297 0.0359182
Si 14.1604 -43.7604 0.0314606
Si 13.2125 -40.6566 0.029502
O 10.3956 -43.1352 0.037823
Si 11.0607 -44.6411 0.032807
Si 10.2359 -41.5023 0.0307731
O 10.3997 -45.313 1.39927
O 12.7229 -44.5963 0.0316408
O 10.3994 -45.313 20.5274
O 9.55093 -41.1208 1.44934
O 11.6109 -40.6808 -0.132553
O 9.34591 -41.1677 20.5774
O 18.2594 -40.4496 2.76541
Si 18.6542 -42.0478 2.76167
Si 17.387 -39.0601 2.75943
O 14.8444 -41.819 2.7691
Si 15.6634 -43.2471 2.7639
Si 14.5149 -40.2118 2.76202
O 15.0763 -43.9843 4.13049
O 17.3118 -43.0291 2.76231
O 15.0757 -43.9845 1.39792
O 13.794 -39.9039 4.18072
O 15.7966 -39.2514 2.59778
O 13.5945 -39.9721 1.44817
O 22.3851 -38.3275 0.0292407
Si 22.9449 -39.8756 0.0265902
Si 21.3719 -37.037 0.024293
O 19.1315 -40.046 0.034345
Si 20.0955 -41.3806 0.0289478
Si 18.6357 -38.4821 0.0268122
O 19.5884 -42.1751 1.3955
O 21.7122 -40.9916 0.0274391
O 19.588 -42.175 20.5235
O 17.8866 -38.2508 1.44547
O 19.8102 -37.3933 -0.137932
O 17.6953 -38.3398 20.5737
O 26.2658 -35.7852 2.76021
Si 26.9848 -37.2661 2.75743
Si 25.1226 -34.6084 2.75568
O 23.2098 -37.8354 2.76536
Si 24.3086 -39.0614 2.75915
Si 22.553 -36.332 2.75698
O 23.8873 -39.9047 4.1256
O 25.8757 -38.5051 2.75785
O 23.887 -39.9043 1.39289
O 21.7842 -36.1798 4.17571
O 23.6072 -35.1266 2.59138
O 21.6027 -36.289 1.44339
O 29.857 -32.8484 0.0257834
Si 30.7278 -34.2455 0.0221965
Si 28.5961 -31.7987 0.0205644
O 27.0339 -35.2095 0.0321506
Si 28.2556 -36.313 0.0248288
Si 26.2227 -33.7834 0.0232227
O 27.9255 -37.1959 1.39145
O 29.7553 -35.5945 0.022772
O 27.9246 -37.1957 20.5194
O 25.4435 -33.712 1.4426
O 27.1441 -32.4741 -0.144555
O 25.2724 -33.8414 20.571
O 33.1174 -29.5486 2.75381
Si 34.1306 -30.8461 2.75018
Si 31.7529 -28.6377 2.74788
O 30.5597 -32.1948 2.76153
Si 31.8908 -33.1634 2.75459
Si 29.6027 -30.8622 2.75316
O 31.6558 -34.0761 4.12136
O 33.3063 -32.2904 2.75173
O 31.6548 -34.0765 1.38874
O 28.821 -30.8732 4.1729
O 30.3803 -29.4628 2.58439
O 28.6635 -31.0206 1.44051
O 36.0108 -25.923 0.0165954
Si 37.1553 -27.1064 0.0133142
Si 34.558 -25.1608 0.0110667
O 33.7469 -28.8242 0.0226763
Si 35.1727 -29.6471 0.0173065
Si 32.6547 -27.6 0.0152516
O 35.0352 -30.5798 1.38388
O 36.4881 -28.6297 0.0149542
O 35.0349 -30.5799 20.512
O 31.8779 -27.6943 1.43455
O 33.2799 -26.1259 -0.15178
O 31.7381 -27.8557 20.5627
O -38.4687 22.0095 2.77183
Si -39.7289 23.0687 2.76147
Si -36.9458 21.3993 2.75991
O -36.5146 25.126 2.76257
Si -38.0172 25.7986 2.75906
Si -35.3021 24.0207 2.75651
O -37.9763 26.74 4.12548
O -39.2216 24.6522 2.75948
O -37.9761 26.7405 1.3929
O -34.5377 24.1964 4.17488
O -35.7728 22.4896 2.59528
O -34.4171 24.3677 1.44227
O -40.5538 17.8648 0.0382961
Si -41.9178 18.7865 0.0298213
Si -38.9752 17.418 0.028563
O -38.936 21.1698 0.02687
Si -40.501 21.6808 0.0285646
Si -37.6147 20.1972 0.0268128
O -40.5582 22.6208 1.39536
O -41.5787 20.4144 0.0289779
O -40.5595 22.6224 20.5233
O -36.8746 20.4511 1.44607
O -37.9229 18.6253 -0.135539
O -36.7699 20.635 20.5739
O -42.1921 13.5243 2.77007
Si -43.6452 14.2981 2.76497
Si -40.5753 13.2456 2.76317
O -40.9304 16.9808 2.76482
Si -42.5402 17.3252 2.76237
Si -39.5143 16.1523 2.761
O -42.6957 18.2551 4.12853
O -43.479 15.9526 2.7637
O -42.6969 18.2547 1.39596
O -38.804 16.483 4.17971
O -39.6554 14.5567 2.59982
O -38.7206 16.6761 1.44699
O -43.3649 9.03608 0.0409591
Si -44.8913 9.65301 0.0363595
Si -41.7278 8.92778 0.0342125
O -42.4735 12.6049 0.0361714
Si -44.1105 12.7793 0.032599
Si -40.9781 11.9299 0.0306227
O -44.3633 13.6876 1.39872
O -44.9 11.3158 0.0342066
O -44.3636 13.6873 20.5268
O -40.306 12.3342 1.44892
O -40.9504 10.3281 -0.129337
O -40.2445 12.5339 20.5768
O 42.2008 -13.516 2.73989
Si 43.6561 -14.2856 2.73596
Si 40.5832 -13.242 2.73362
O 40.95 -16.9763 2.74328
Si 42.5608 -17.316 2.73846
Si 39.5314 -16.1521 2.7364
O 42.72 -18.2452 4.10485
O 43.4952 -15.9406 2.73699
O 42.72 -18.2451 1.37235
O 38.8217 -16.4849 4.15503
O 39.6674 -14.5563 2.57241
O 38.74 -16.679 1.42243
O 43.3611 -9.02452 0.00587853
Si 44.8889 -9.63762 0.00178068
Si 41.7237 -8.92102 -0.000369387
O 42.4793 -12.5966 0.00746739
Si 44.1168 -12.7659 0.00320239
Si 40.9822 -11.9254 0.000990893
O 44.3725 -13.6733 1.36955
O 44.9021 -11.3003 0.00224999
O 44.3726 -13.6731 20.4977
O 40.3111 -12.3313 1.41934
O 40.9504 -10.3239 -0.161534
O 40.2504 -12.5317 20.5474
O 44.0456 -4.43631 2.73767
Si 45.6291 -4.88657 2.7333
Si 42.4063 -4.50401 2.73132
O 43.5419 -8.08065 2.73882
Si 45.1882 -8.07824 2.73429
Si 41.9829 -7.56956 2.73226
O 45.5374 -8.95374 4.10065
O 45.8161 -6.5387 2.73346
O 45.5374 -8.95374 1.36816
O 41.3578 -8.04405 4.15042
O 41.7836 -5.98004 2.57084
O 41.3186 -8.24887 1.41774
O 44.2487 0.198398 0.00401172
Si 45.8705 -0.084649 -0.000364286
Si 42.6253 -0.0390959 -0.0024809
O 44.127 -3.47815 0.00523589
Si 45.764 -3.30464 0.000645017
Si 42.5231 -3.13231 -0.00123916
O 46.2027 -4.13878 1.36702
O 46.2284 -1.70824 -0.000190424
O 46.2027 -4.13892 20.4952
O 41.9509 -3.67024 1.41666
O 42.1592 -1.57205 -0.161482
O 41.9333 -3.87681 20.5446
O 38.5062 -22.0125 8.21087
Si 39.7688 -23.0689 8.20736
Si 36.9813 -21.4072 8.20529
O 36.5606 -25.1359 8.21643
Si 38.065 -25.8042 8.21084
Si 35.3455 -24.0335 8.20885
O 38.0266 -26.7463 9.5773
O 39.2659 -24.6539 8.20877
O 38.0264 -26.7462 6.84477
O 34.5826 -24.2097 9.62788
O 35.8118 -22.5016 8.04275
O 34.4612 -24.384 6.89535
O 40.5767 -17.8614 5.47497
Si 41.9434 -18.7793 5.47124
Si 38.9967 -17.4195 5.46898
O 38.9701 -21.1717 5.48022
Si 40.5364 -21.6784 5.47456
Si 37.6458 -20.2032 5.47269
O 40.5974 -22.6191 6.84103
O 41.6098 -20.4083 5.47256
O 40.5971 -22.6192 4.10851
O 36.9056 -20.4589 6.89165
O 37.9486 -18.6307 5.30715
O 36.8034 -20.6448 4.1591
O 43.9707 4.82927 8.20106
Si 45.6131 4.71594 8.19662
Si 42.3806 4.42511 8.19425
O 44.2302 1.16024 8.20163
Si 45.8405 1.50244 8.19731
Si 42.5991 1.3377 8.19524
O 46.3633 0.718424 9.56366
O 46.1372 3.13823 8.19671
O 46.3634 0.718362 6.83119
O 42.0858 0.74221 9.61274
O 42.0753 2.85202 8.03642
O 42.0896 0.536634 6.88002
O 43.2166 9.40703 5.46902
Si 44.8619 9.46407 5.46439
Si 41.6767 8.84078 5.46244
O 43.8531 5.78443 5.46759
Si 45.4194 6.29128 5.46399
Si 42.2124 5.79227 5.46165
O 46.0204 5.56546 6.8303
O 45.5459 7.9489 5.46391
O 46.0205 5.56566 4.09777
O 41.7634 5.14599 6.87876
O 41.5352 7.24462 5.30397
O 41.7881 4.94351 4.14607
O 41.9945 13.8828 8.20141
Si 43.6251 14.1093 8.19691
Si 40.5214 13.1604 8.19504
O 43.0013 10.345 8.20136
Si 44.5068 11.011 8.19694
Si 41.3686 10.1834 8.19497
O 45.1794 10.3513 9.56341
O 44.4617 12.6728 8.19643
O 45.1795 10.351 6.83084
O 40.9884 9.49489 9.61235
O 40.5454 11.5582 8.03613
O 41.0343 9.29478 6.87975
O 40.3173 18.2083 5.46816
Si 41.9157 18.6022 5.46376
Si 38.9268 17.3374 5.46199
O 41.6839 14.7932 5.46924
Si 43.1125 15.6113 5.4643
Si 40.0766 14.4639 5.46244
O 43.8495 15.0247 6.83085
O 42.8961 17.2596 5.46345
O 43.8496 15.0241 4.09823
O 39.7693 13.7402 6.87998
O 39.1162 15.7464 5.30268
O 39.8359 13.5451 4.14746
O 38.2018 22.3372 8.19886
Si 39.7509 22.8944 8.19491
Si 36.909 21.327 8.19293
O 39.9144 19.0817 8.20165
Si 41.2507 20.0432 8.19632
Si 38.3498 18.5878 8.19462
O 42.0443 19.5359 9.5629
O 40.8649 21.6603 8.19511
O 42.0445 19.5353 6.83026
O 38.1187 17.8365 9.61228
O 37.2619 19.764 8.03412
O 38.2055 17.6489 6.8798
O 35.6703 26.225 5.46379
Si 37.1533 26.9397 5.46065
Si 34.4891 25.0862 5.45842
O 37.7107 23.1642 5.46746
Si 38.9402 24.259 5.46227
Si 36.2057 22.5109 5.46037
O 39.7822 23.8363 6.82878
O 38.3891 25.8275 5.46114
O 39.7823 23.836 4.09613
O 36.0536 21.7397 6.87794
O 35.0019 23.5682 5.29984
O 36.1593 21.5623 4.14548
O 32.7493 29.8295 8.19508
Si 34.1501 30.6944 8.19203
Si 31.6929 28.5742 8.18981
O 35.0963 26.9967 8.19852
Si 36.2055 28.2133 8.19318
Si 33.6672 26.1909 8.191
O 37.0869 27.8799 9.55962
O 35.4946 29.7162 8.19231
O 37.0867 27.8797 6.82695
O 33.5956 25.408 9.60854
O 32.3604 27.1177 8.03017
O 33.7192 25.2425 6.87617
O 29.4694 33.1107 5.46137
Si 30.7725 34.1168 5.45842
Si 28.5498 31.752 5.45583
O 32.0986 30.5373 5.46494
Si 33.075 31.8628 5.45944
Si 30.7611 29.5872 5.45726
O 33.9864 31.6227 6.82589
O 32.2114 33.2837 5.45876
O 33.9862 31.6224 4.09317
O 30.7706 28.8017 6.87508
O 29.3653 30.3731 5.2954
O 30.9117 28.6491 4.14277
O 25.8645 36.0311 8.1959
Si 27.0552 37.168 8.19205
Si 25.0924 34.5835 8.18998
O 28.7489 33.7465 8.19565
Si 29.5811 35.1669 8.19109
Si 27.5178 32.662 8.18849
O 30.5128 35.0229 9.55734
O 28.5735 36.4897 8.19149
O 30.5122 35.023 6.82458
O 27.6088 31.8821 9.60639
O 26.0477 33.2979 8.02667
O 27.7653 31.7446 6.87405
O 21.9724 38.556 5.46672
Si 23.037 39.8116 5.46173
Si 21.3572 37.0351 5.46011
O 25.0817 36.5874 5.4642
Si 25.7599 38.0875 5.45962
Si 23.9711 35.3798 5.45745
O 26.7016 38.0419 6.82588
O 24.6183 39.2968 5.46041
O 26.7012 38.042 4.09316
O 24.1421 34.6151 6.8761
O 22.4426 35.8579 5.29402
O 24.3144 34.493 4.14369
O 17.8351 40.6548 8.20235
Si 18.7614 42.0157 8.19678
Si 17.3841 39.0774 8.19505
O 21.1356 39.026 8.19893
Si 21.6516 40.5894 8.19446
Si 20.1584 37.7082 8.19267
O 22.5928 40.6434 9.56081
O 20.3884 41.6711 8.1952
O 22.5929 40.6434 6.82815
O 20.4078 36.9669 9.61207
O 18.5881 38.0221 8.02772
O 20.5944 36.8621 6.87955
O 13.4989 42.3029 5.47262
Si 14.2762 43.7541 5.46685
Si 13.2171 40.6866 5.46492
O 16.9534 41.0332 5.46827
Si 17.3013 42.6422 5.46433
Si 16.121 39.6194 5.46245
O 18.2315 42.7957 6.8307
O 15.9305 43.5839 5.46513
O 18.2318 42.7957 4.09808
O 16.4472 38.9092 6.8821
O 14.5263 39.765 5.29746
O 16.6444 38.8242 4.14946
O 9.01265 43.4823 8.20784
Si 9.63225 45.0075 8.20209
Si 8.90296 41.8454 8.19999
O 12.5818 42.5854 8.20314
Si 12.7579 44.2222 8.19958
Si 11.9035 41.0916 8.19753
O 13.6666 44.4734 9.56592
O 11.2952 45.0135 8.20037
O 13.667 44.4736 6.83342
O 12.3035 40.4199 9.6171
O 10.3023 41.0672 8.03329
O 12.5081 40.3564 6.88434
O 4.4269 44.1822 5.47714
Si 4.88233 45.7643 5.47179
Si 4.49003 42.5428 5.46957
O 8.07039 43.6664 5.47294
Si 8.07317 45.3127 5.46963
Si 7.5535 42.1093 5.46741
O 8.9501 45.6584 6.836
O 6.53536 45.9455 5.47031
O 8.95053 45.6586 4.1035
O 8.02279 41.4835 6.88678
O 5.96365 41.9161 5.30395
O 8.23192 41.4421 4.15394
O -0.207129 44.3967 8.21223
Si 0.0795728 46.0178 8.20677
Si 0.0279042 42.773 8.20486
O 3.47035 44.2663 8.20784
Si 3.30003 45.9038 8.20447
Si 3.12004 42.6635 8.2021
O 4.13569 46.3398 9.5708
O 1.70435 46.3716 8.20522
O 4.13599 46.3401 6.83832
O 3.65308 42.0904 9.62122
O 1.55919 42.3045 8.03916
O 3.86452 42.0713 6.88846
O -4.83789 44.1236 5.48216
Si -4.72292 45.7659 5.47644
Si -4.43383 42.5335 5.4746
O -1.16713 44.38 5.47815
Si -1.5084 45.9905 5.4743
Si -1.34722 42.7492 5.47226
O -0.723244 46.5119 6.84065
O -3.14433 46.2883 5.47494
O -0.722952 46.5121 4.10813
O -0.756957 42.2352 6.89141
O -2.86179 42.2283 5.30923
O -0.544498 42.2385 4.15867
O -9.41451 43.3668 8.21832
Si -9.47226 45.012 8.21191
Si -8.84616 41.8277 8.21047
O -5.79089 44.0063 8.21295
Si -6.29904 45.5722 8.20918
Si -5.79901 42.3656 8.20722
O -5.57292 46.1731 9.57549
O -7.95712 45.697 8.21006
O -5.57287 46.1733 6.84292
O -5.15768 41.9164 9.62622
O -7.25076 41.6889 8.04483
O -4.94743 41.9419 6.89344
O -13.8867 42.1347 5.48698
Si -14.1162 43.7649 5.48126
Si -13.1607 40.6634 5.47922
O -10.3502 43.1501 5.48332
Si -11.0193 44.6542 5.47944
Si -10.1866 41.5176 5.47788
O -10.3604 45.3278 6.84583
O -12.6812 44.6048 5.47981
O -10.3599 45.3283 4.11341
O -9.50179 41.1381 6.89699
O -11.5593 40.6923 5.31529
O -9.29503 41.1854 4.1642
O -18.2066 40.4439 8.22003
Si -18.605 42.0413 8.21526
Si -17.3314 39.0562 8.21305
O -14.7952 41.8215 8.21748
Si -15.6174 43.2478 8.21388
Si -14.4619 40.215 8.21174
O -15.0324 43.9864 9.58034
O -17.2652 43.0259 8.21406
O -15.032 43.9868 6.84782
O -13.7401 39.9094 9.63039
O -15.7414 39.2511 8.05039
O -13.5411 39.9774 6.89765
O -22.3274 38.3129 5.48812
Si -22.8899 39.86 5.48354
Si -21.3124 37.0238 5.48126
O -19.0779 40.038 5.48674
Si -20.0441 41.3709 5.48274
Si -18.579 38.475 5.48047
O -19.5392 42.1664 6.84921
O -21.6599 40.9787 5.4827
O -19.5388 42.1667 4.11665
O -17.8286 38.2462 6.89877
O -19.7512 37.383 5.31961
O -17.6389 38.3343 4.16613
O -26.2044 35.7654 8.22295
Si -26.9251 37.2455 8.21765
Si -25.0608 34.5889 8.21574
O -23.152 37.8185 8.22029
Si -24.2516 39.0437 8.21623
Si -22.4929 36.316 8.2139
O -23.832 39.8874 9.58257
O -25.8179 38.4859 8.21662
O -23.8319 39.8875 6.84999
O -21.722 36.1667 9.63183
O -23.5453 35.108 8.05397
O -21.5438 36.2735 6.89923
O -29.796 32.8284 5.49269
Si -30.6669 34.2254 5.48721
Si -28.5359 31.7777 5.48593
O -26.9733 35.1883 5.48914
Si -28.1948 36.292 5.48518
Si -26.1616 33.7625 5.48315
O -27.8649 37.1748 6.85152
O -29.6946 35.5742 5.48591
O -27.8651 37.1749 4.11886
O -25.3797 33.6938 6.90123
O -27.083 32.4519 5.32268
O -25.213 33.8187 4.16868
O -33.0603 29.5317 8.22659
Si -34.0721 30.8303 8.22195
Si -31.6972 28.6186 8.21975
O -30.4999 32.1745 8.22436
Si -31.83 33.1445 8.21992
Si -29.544 30.841 8.2185
O -31.5943 34.057 9.58625
O -33.2464 32.2735 8.22056
O -31.5943 34.057 6.8536
O -28.7601 30.8537 9.63705
O -30.323 29.4414 8.05667
O -28.606 30.9966 6.90442
O -35.9618 25.9125 5.49627
Si -37.1041 27.0979 5.49151
Si -34.5108 25.1465 5.48905
O -33.6919 28.8076 5.49345
Si -35.1159 29.6337 5.48949
Si -32.6015 27.5817 5.48716
O -34.9769 30.5657 6.85589
O -36.4337 28.6196 5.49003
O -34.9766 30.566 4.1233
O -31.823 27.6765 6.90553
O -33.2299 26.1082 5.32592
O -31.6851 27.8345 4.173
O -44.0627 4.44949 8.24772
Si -45.6451 4.9035 8.2384
Si -42.4232 4.51361 8.23792
O -43.5487 8.09286 8.23862
Si -45.1949 8.09417 8.23436
Si -41.9911 7.57746 8.23198
O -45.5417 8.97044 9.60074
O -45.8272 6.55628 8.23521
O -45.5415 8.97095 6.86816
O -41.3649 8.04909 9.6505
O -41.7973 5.98741 8.07044
O -41.3246 8.25526 6.91779
O -44.2756 -0.184984 5.50686
Si -45.8968 0.101215 5.50342
Si -42.652 0.0508696 5.50073
O -44.1466 3.49305 5.50951
Si -45.7839 3.32158 5.50574
Si -42.5437 3.14334 5.50518
O -46.2202 4.15575 6.87284
O -46.2512 1.72579 5.50415
O -46.2209 4.15813 4.14025
O -41.9714 3.67506 6.92522
O -42.1841 1.58284 5.33904
O -41.9515 3.88968 4.19246
O -44.0028 -4.81527 8.24322
Si -45.6451 -4.70078 8.23817
Si -42.4125 -4.4118 8.23617
O -44.2588 -1.14533 8.23889
Si -45.8693 -1.48651 8.23601
Si -42.6279 -1.32486 8.23329
O -46.3908 -0.700785 9.60195
O -46.1675 -3.12226 8.23711
O -46.3909 -0.701988 6.86945
O -42.1137 -0.73195 9.65126
O -42.1064 -2.83959 8.07319
O -42.1172 -0.523838 6.91862
O -43.247 -9.39247 5.5124
Si -44.8922 -9.44999 5.50748
Si -41.7075 -8.82519 5.50549
O -43.8855 -5.76928 5.50931
Si -45.4516 -6.27687 5.50564
Si -42.2449 -5.77763 5.50356
O -46.0524 -5.55081 6.87204
O -45.577 -7.93484 5.50601
O -46.0526 -5.55057 4.13945
O -41.7956 -5.13485 6.922
O -41.5677 -7.22948 5.34305
O -41.8208 -4.92705 4.18923
O -42.0183 -13.8661 8.24647
Si -43.6487 -14.0947 8.24059
Si -40.5463 -13.1416 8.23928
O -43.0306 -10.3292 8.24465
Si -44.5353 -10.9971 8.24015
Si -41.398 -10.1663 8.23813
O -45.2086 -10.3381 9.60669
O -44.4874 -12.6591 8.23967
O -45.2088 -10.3372 6.8742
O -41.0183 -9.47957 9.65633