2592
 Atoms. Timestep: 33509
O 6.31712 -4.11059 -4.06015
Si 7.67327 -4.99255 -3.69536
Si 4.93953 -3.21414 -3.85326
O 5.16624 -5.74798 -9.49919
Si 6.22463 -6.92509 -9.0736
Si 4.09635 -4.5568 -9.20578
O 6.3174 -4.11022 -6.59665
Si 7.67334 -4.99248 -6.9615
Si 4.93983 -3.21374 -6.80353
O 8.11163 -5.27762 -5.32842
O 4.43732 -2.88709 -5.3284
O 5.16527 -5.74853 -1.15769
Si 6.22435 -6.92504 -1.58325
Si 4.09552 -4.55716 -1.45103
O 6.58033 -7.32075 0.0599509
O 3.70323 -4.11955 0.060061
O 7.31548 -6.25403 -8.00013
O 4.60858 -2.99815 -9.1398
O 5.44155 -7.93859 -2.65684
O 7.31531 -6.25397 -2.6566
O 4.60785 -2.99851 -1.51705
O 5.44167 -7.93865 -8.00015
O 5.48779 -1.78859 -3.09821
O 5.48808 -1.78814 -7.55852
O 7.52625 -0.401388 -4.05999
Si 9.14172 -0.487051 -3.69524
Si 5.88498 -0.313734 -3.8532
O 7.34865 -2.39221 -9.49912
Si 8.85307 -2.88467 -9.07352
Si 5.82572 -1.89795 -9.20574
O 7.52642 -0.400894 -6.59662
Si 9.14189 -0.486951 -6.96132
Si 5.88516 -0.313285 -6.80347
O 9.66397 -0.514723 -5.32825
O 5.28661 -0.28163 -5.32836
O 7.34782 -2.39424 -1.15761
Si 8.85283 -2.88494 -1.58315
Si 5.82528 -1.89866 -1.45097
O 9.35886 -3.0499 0.0600527
O 5.26638 -1.71675 0.0601003
O 9.4627 -1.7585 -7.99986
O 5.48921 -0.292216 -9.13953
O 8.68147 -4.15413 -2.65665
O 9.4624 -1.7585 -2.65654
O 5.48929 -0.29276 -1.51709
O 8.68141 -4.15405 -8.00032
O 5.64683 1.19497 -3.09822
O 5.64688 1.1954 -7.55849
O 6.71836 3.4158 -4.0601
Si 8.16037 4.14905 -3.69533
Si 5.25332 2.67078 -3.85326
O 7.56045 1.59986 -9.49912
Si 9.10904 1.928 -9.07352
Si 5.99388 1.26887 -9.20576
O 6.71802 3.41663 -6.59667
Si 8.16036 4.14925 -6.96144
Si 5.2532 2.67118 -6.80353
O 8.62654 4.38601 -5.32837
O 4.71904 2.39934 -5.32841
O 7.56048 1.59948 -1.15758
Si 9.10902 1.92794 -1.58311
Si 5.99393 1.26836 -1.45096
O 9.62965 2.03826 0.0600931
O 5.41872 1.14714 0.060067
O 9.07359 3.20831 -8.00015
O 4.90021 2.49182 -9.13969
O 9.59551 0.7432 -2.65657
O 9.07361 3.20826 -2.65648
O 4.90028 2.49137 -1.51711
O 9.59561 0.743259 -8.00009
O 4.29278 3.85834 -3.09828
O 4.29261 3.85865 -7.55862
O 4.11056 6.31712 -4.06026
Si 4.9925 7.67329 -3.69547
Si 3.21403 4.93959 -3.85337
O 5.74818 5.16589 -9.49922
Si 6.92505 6.22455 -9.07363
Si 4.55687 4.09615 -9.20581
O 4.1101 6.31741 -6.59677
Si 4.99239 7.67334 -6.96161
Si 3.2137 4.93979 -6.80364
O 5.27756 8.11164 -5.32854
O 2.88701 4.43733 -5.3285
O 5.74811 5.16563 -1.15772
Si 6.9249 6.2244 -1.58328
Si 4.55691 4.0957 -1.45106
O 7.32066 6.58032 0.0599256
O 4.11946 3.70321 0.0600294
O 6.25392 7.31543 -8.00024
O 2.99821 4.60842 -9.13991
O 7.93846 5.44152 -2.65679
O 6.25392 7.31535 -2.6567
O 2.99826 4.60799 -1.51716
O 7.9386 5.44167 -8.0001
O 1.78845 5.48788 -3.09839
O 1.78813 5.48801 -7.5587
O 0.401307 7.52631 -4.06026
Si 0.486981 9.14178 -3.69551
Si 0.313624 5.88505 -3.85345
O 2.39265 7.34843 -9.49931
Si 2.88467 8.853 -9.07373
Si 1.89807 5.82559 -9.20593
O 0.400813 7.52637 -6.59689
Si 0.486875 9.14183 -6.9616
Si 0.313251 5.8851 -6.80372
O 0.514656 9.66397 -5.32855
O 0.281557 5.28662 -5.32859
O 2.39383 7.348 -1.15779
Si 2.88481 8.85291 -1.58336
Si 1.89841 5.82542 -1.45116
O 3.04982 9.35887 0.0598645
O 1.71664 5.26641 0.0598862
O 1.75842 9.46261 -8.00014
O 0.292287 5.48918 -9.13979
O 4.15405 8.68148 -2.65679
O 1.75843 9.46249 -2.65682
O 0.292539 5.48941 -1.51734
O 4.15399 8.68144 -8.00044
O -1.19511 5.64692 -3.09851
O -1.19541 5.64681 -7.55878
O -3.41588 6.71843 -4.06043
Si -4.14914 8.16043 -3.69565
Si -2.67088 5.25337 -3.85357
O -1.59987 7.56038 -9.4994
Si -1.92804 9.10898 -9.07384
Si -1.26882 5.9938 -9.20605
O -3.41666 6.71799 -6.597
Si -4.14929 8.16031 -6.96176
Si -2.67121 5.25316 -6.80385
O -4.38609 8.62654 -5.32871
O -2.39941 4.71904 -5.3287
O -1.59972 7.56059 -1.15785
Si -1.92806 9.10915 -1.58343
Si -1.26857 5.99407 -1.45126
O -2.03834 9.62968 0.0598151
O -1.14719 5.41876 0.0597198
O -3.20835 9.07354 -8.00047
O -2.49178 4.90011 -9.13999
O -0.74328 9.5956 -2.65686
O -3.20837 9.07371 -2.65681
O -2.49155 4.90041 -1.51741
O -0.743322 9.59555 -8.00038
O -3.85847 4.29285 -3.0986
O -3.85865 4.29254 -7.55894
O -6.31724 4.1106 -4.06059
Si -7.67342 4.99254 -3.69581
Si -4.9397 3.21408 -3.85368
O -5.16584 5.74809 -9.49953
Si -6.22453 6.92496 -9.07398
Si -4.09611 4.55674 -9.20614
O -6.31743 4.11005 -6.5971
Si -7.67334 4.99235 -6.96194
Si -4.93981 3.21365 -6.80395
O -8.1117 5.27756 -5.32891
O -4.4374 2.88701 -5.32879
O -5.1659 5.74809 -1.15802
Si -6.22455 6.92496 -1.58363
Si -4.09586 4.55701 -1.45139
O -6.58037 7.32065 0.0596195
O -3.70324 4.11947 0.0596463
O -7.31542 6.25386 -8.00059
O -4.60842 2.99808 -9.14021
O -5.44161 7.93851 -2.65711
O -7.31549 6.25398 -2.65706
O -4.60806 2.99835 -1.51747
O -5.44169 7.93854 -8.00044
O -5.488 1.78852 -3.09866
O -5.488 1.78805 -7.55897
O -7.52641 0.401259 -4.06048
Si -9.14188 0.48697 -3.69573
Si -5.88515 0.313665 -3.85366
O -7.34847 2.39238 -9.49957
Si -8.853 2.88459 -9.07403
Si -5.82559 1.8979 -9.2062
O -7.52639 0.400847 -6.59711
Si -9.14185 0.486878 -6.96182
Si -5.88512 0.3132 -6.80394
O -9.66403 0.514658 -5.32878
O -5.28667 0.281548 -5.32879
O -7.34801 2.39423 -1.15805
Si -8.85302 2.88489 -1.58365
Si -5.82553 1.89858 -1.45143
O -9.35892 3.04981 0.0595975
O -5.26646 1.71661 0.0595745
O -9.46263 1.7584 -8.00039
O -5.48919 0.292106 -9.14
O -8.68163 4.15409 -2.65713
O -9.46256 1.75843 -2.65704
O -5.48955 0.292699 -1.51754
O -8.68142 4.15394 -8.00078
O -5.64705 -1.19504 -3.09865
O -5.64683 -1.19549 -7.55891
O -6.71852 -3.41591 -4.06048
Si -8.16052 -4.14916 -3.69571
Si -5.25349 -2.67085 -3.85363
O -7.56031 -1.60031 -9.49953
Si -9.109 -1.92811 -9.07399
Si -5.99377 -1.26904 -9.2062
O -6.71807 -3.41665 -6.59706
Si -8.16039 -4.14929 -6.96182
Si -5.25321 -2.67126 -6.8039
O -8.62663 -4.38609 -5.32877
O -4.71913 -2.39942 -5.32875
O -7.56082 -1.59931 -1.15799
Si -9.10929 -1.928 -1.58358
Si -5.99426 -1.26837 -1.45141
O -9.62976 -2.03834 0.059686
O -5.41884 -1.14719 0.0595527
O -9.07363 -3.20837 -8.00054
O -4.90007 -2.49197 -9.14004
O -9.59575 -0.743282 -2.65709
O -9.07379 -3.20836 -2.65688
O -4.90062 -2.49138 -1.51746
O -9.59554 -0.743329 -8.00059
O -4.293 -3.8584 -3.09857
O -4.29256 -3.85873 -7.55891
O -4.11063 -6.31725 -4.06048
Si -4.99259 -7.6734 -3.69569
Si -3.21419 -4.93965 -3.85357
O -5.74789 -5.1662 -9.4995
Si -6.925 -6.22461 -9.07395
Si -4.55667 -4.09632 -9.20611
O -4.11017 -6.31742 -6.59698
Si -4.99244 -7.67335 -6.96183
Si -3.21369 -4.93985 -6.80384
O -5.27762 -8.1117 -5.32878
O -2.88709 -4.43739 -5.32868
O -5.74851 -5.16553 -1.158
Si -6.9251 -6.22449 -1.5836
Si -4.55726 -4.09568 -1.45136
O -7.32074 -6.58039 0.0596454
O -4.11955 -3.70327 0.0596774
O -6.25397 -7.31547 -8.00048
O -2.99802 -4.60859 -9.14011
O -7.93864 -5.44165 -2.65716
O -6.25404 -7.31545 -2.65696
O -2.9986 -4.60792 -1.51736
O -7.93859 -5.44169 -8.00049
O -1.78866 -5.48791 -3.09847
O -1.78806 -5.48808 -7.55878
O -0.401339 -7.52636 -4.06022
Si -0.487039 -9.14182 -3.69546
Si -0.313777 -5.88508 -3.85341
O -2.39193 -7.34869 -9.49938
Si -2.88459 -8.85306 -9.07382
Si -1.89778 -5.82571 -9.20601
O -0.400929 -7.52644 -6.59684
Si -0.486955 -9.14191 -6.96154
Si -0.313236 -5.88517 -6.80368
O -0.514726 -9.66403 -5.32849
O -0.281623 -5.28667 -5.32856
O -2.39464 -7.34783 -1.15787
Si -2.88501 -8.85294 -1.58345
Si -1.89883 -5.82539 -1.45124
O -3.04989 -9.35891 0.0597864
O -1.71672 -5.26644 0.059788
O -1.75848 -9.46273 -8.0001
O -0.292038 -5.48922 -9.13974
O -4.15418 -8.68162 -2.657
O -1.7585 -9.46247 -2.65677
O -0.292921 -5.48944 -1.51729
O -4.154 -8.6814 -8.00066
O 1.1949 -5.64696 -3.09836
O 1.19548 -5.64689 -7.55862
O 3.41583 -6.71845 -4.06015
Si 4.14907 -8.16047 -3.69539
Si 2.67074 -5.25344 -3.85332
O 1.60029 -7.56038 -9.49926
Si 1.92807 -9.10906 -9.07367
Si 1.26908 -5.99385 -9.2059
O 3.41662 -6.7181 -6.59674
Si 4.14925 -8.16043 -6.9615
Si 2.67123 -5.25325 -6.80359
O 4.38601 -8.62662 -5.32844
O 2.39935 -4.71912 -5.32846
O 1.59906 -7.56071 -1.15771
Si 1.92788 -9.10917 -1.58326
Si 1.26816 -5.99412 -1.45111
O 2.03827 -9.62973 0.059964
O 1.14715 -5.41881 0.0598999
O 3.20833 -9.07367 -8.00022
O 2.49202 -4.90017 -9.13974
O 0.743203 -9.59567 -2.6568
O 3.20826 -9.07369 -2.65655
O 2.4912 -4.90049 -1.51717
O 0.743265 -9.59559 -8.0003
O 3.85827 -4.29292 -3.09825
O 3.85873 -4.29263 -7.5586
O 6.31712 -4.11059 6.71669
Si 7.67327 -4.99255 7.08148
Si 4.93954 -3.21414 6.92358
O 5.16625 -5.74797 1.27764
Si 6.22463 -6.92509 1.70324
Si 4.09636 -4.5568 1.57105
O 6.3174 -4.11022 4.18018
Si 7.67334 -4.99248 3.81534
Si 4.93984 -3.21374 3.9733
O 8.11164 -5.27762 5.44841
O 4.43733 -2.88709 5.44843
O 5.16528 -5.74852 9.61914
Si 6.22435 -6.92504 9.19358
Si 4.09553 -4.55716 9.3258
O 6.58033 -7.32075 10.8368
O 3.70323 -4.11955 10.8369
O 7.31549 -6.25403 2.77671
O 4.60859 -2.99815 1.63703
O 5.44155 -7.93859 8.11999
O 7.31531 -6.25397 8.12024
O 4.60785 -2.99851 9.25978
O 5.44167 -7.93865 2.77668
O 5.4878 -1.78858 7.67863
O 5.48808 -1.78814 3.21832
O 7.52626 -0.401384 6.71685
Si 9.14172 -0.48705 7.0816
Si 5.88499 -0.313733 6.92364
O 7.34865 -2.39222 1.27771
Si 8.85307 -2.88467 1.70331
Si 5.82572 -1.89795 1.5711
O 7.52643 -0.400893 4.18021
Si 9.14189 -0.486951 3.81551
Si 5.88516 -0.313284 3.97336
O 9.66397 -0.514723 5.44858
O 5.28661 -0.281629 5.44847
O 7.34782 -2.39424 9.61923
Si 8.85283 -2.88494 9.19368
Si 5.82528 -1.89866 9.32586
O 9.35886 -3.0499 10.8369
O 5.26638 -1.71675 10.8369
O 9.46271 -1.7585 2.77698
O 5.48922 -0.292215 1.6373
O 8.68147 -4.15413 8.12019
O 9.4624 -1.7585 8.12029
O 5.4893 -0.292757 9.25974
O 8.68142 -4.15405 2.77651
O 5.64683 1.19498 7.67861
O 5.64688 1.1954 3.21835
O 6.71836 3.4158 6.71674
Si 8.16037 4.14905 7.0815
Si 5.25332 2.67078 6.92358
O 7.56045 1.59988 1.27771
Si 9.10904 1.928 1.70331
Si 5.99388 1.26887 1.57108
O 6.71803 3.41663 4.18016
Si 8.16036 4.14925 3.8154
Si 5.25321 2.67118 3.9733
O 8.62654 4.38601 5.44846
O 4.71904 2.39935 5.44842
O 7.56048 1.59947 9.61926
Si 9.10903 1.92794 9.19372
Si 5.99393 1.26837 9.32587
O 9.62965 2.03827 10.8369
O 5.41873 1.14715 10.8369
O 9.07359 3.20831 2.77668
O 4.90021 2.49182 1.63715
O 9.59552 0.743201 8.12026
O 9.07361 3.20826 8.12036
O 4.90029 2.49138 9.25972
O 9.59561 0.743259 2.77675
O 4.29278 3.85834 7.67855
O 4.29262 3.85865 3.21821
O 4.11057 6.31712 6.71657
Si 4.9925 7.67329 7.08136
Si 3.21403 4.93959 6.92347
O 5.74819 5.16588 1.27761
Si 6.92505 6.22455 1.70321
Si 4.55687 4.09615 1.57102
O 4.1101 6.31742 4.18006
Si 4.99239 7.67334 3.81522
Si 3.21371 4.93979 3.9732
O 5.27756 8.11164 5.44829
O 2.88702 4.43733 5.44833
O 5.74811 5.16564 9.61912
Si 6.9249 6.22441 9.19355
Si 4.55691 4.09571 9.32577
O 7.32066 6.58032 10.8368
O 4.11947 3.70321 10.8369
O 6.25392 7.31543 2.77659
O 2.99822 4.60842 1.63693
O 7.93846 5.44152 8.12005
O 6.25393 7.31536 8.12013
O 2.99827 4.60799 9.25967
O 7.9386 5.44168 2.77674
O 1.78845 5.48788 7.67844
O 1.78814 5.48801 3.21813
O 0.40131 7.52631 6.71658
Si 0.486983 9.14178 7.08133
Si 0.313628 5.88505 6.92339
O 2.39267 7.34843 1.27753
Si 2.88467 8.85301 1.7031
Si 1.89807 5.8256 1.57091
O 0.400817 7.52637 4.17995
Si 0.486877 9.14183 3.81524
Si 0.313253 5.8851 3.97311
O 0.514657 9.66397 5.44829
O 0.28156 5.28662 5.44824
O 2.39384 7.348 9.61905
Si 2.88482 8.85291 9.19348
Si 1.89842 5.82542 9.32568
O 3.04982 9.35887 10.8367
O 1.71664 5.26641 10.8367
O 1.75842 9.46261 2.77669
O 0.292291 5.48919 1.63704
O 4.15405 8.68148 8.12005
O 1.75843 9.46249 8.12002
O 0.292543 5.48941 9.2595
O 4.15399 8.68144 2.7764
O -1.1951 5.64692 7.67832
O -1.19541 5.64682 3.21806
O -3.41587 6.71843 6.71641
Si -4.14914 8.16043 7.08119
Si -2.67088 5.25337 6.92326
O -1.59988 7.56037 1.27743
Si -1.92804 9.10898 1.703
Si -1.26882 5.9938 1.57078
O -3.41666 6.71799 4.17983
Si -4.14929 8.16032 3.81508
Si -2.67121 5.25317 3.97299
O -4.38609 8.62654 5.44813
O -2.39941 4.71905 5.44813
O -1.59972 7.56059 9.61898
Si -1.92806 9.10914 9.19341
Si -1.26857 5.99407 9.32557
O -2.03833 9.62968 10.8367
O -1.14719 5.41876 10.8366
O -3.20835 9.07354 2.77637
O -2.49177 4.90011 1.63685
O -0.743278 9.5956 8.11997
O -3.20836 9.07371 8.12002
O -2.49154 4.90041 9.25942
O -0.74332 9.59555 2.77646
O -3.85847 4.29285 7.67824
O -3.85865 4.29254 3.21789
O -6.31724 4.1106 6.71624
Si -7.67341 4.99254 7.08103
Si -4.9397 3.21408 6.92315
O -5.16583 5.7481 1.27731
Si -6.22452 6.92496 1.70286
Si -4.09611 4.55674 1.57069
O -6.31743 4.11005 4.17973
Si -7.67334 4.99235 3.81489
Si -4.93981 3.21365 3.97289
O -8.1117 5.27756 5.44793
O -4.43739 2.88702 5.44805
O -5.16588 5.7481 9.61881
Si -6.22455 6.92496 9.19321
Si -4.09585 4.55701 9.32545
O -6.58037 7.32065 10.8365
O -3.70324 4.11947 10.8365
O -7.31542 6.25386 2.77624
O -4.60842 2.99809 1.63662
O -5.44161 7.93851 8.11973
O -7.31549 6.25398 8.11978
O -4.60805 2.99836 9.25936
O -5.44169 7.93854 2.7764
O -5.488 1.78852 7.67818
O -5.488 1.78805 3.21787
O -7.52641 0.40126 6.71635
Si -9.14188 0.48697 7.0811
Si -5.88514 0.313667 6.92317
O -7.34847 2.39238 1.27727
Si -8.853 2.88459 1.70281
Si -5.82559 1.8979 1.57064
O -7.52638 0.400853 4.17973
Si -9.14185 0.486879 3.81502
Si -5.88512 0.313202 3.9729
O -9.66402 0.514658 5.44805
O -5.28667 0.28155 5.44805
O -7.34801 2.39423 9.61879
Si -8.85301 2.88489 9.19318
Si -5.82552 1.89858 9.3254
O -9.35892 3.04981 10.8364
O -5.26646 1.71661 10.8364
O -9.46263 1.7584 2.77645
O -5.48919 0.29211 1.63684
O -8.68162 4.15409 8.1197
O -9.46255 1.75843 8.11979
O -5.48955 0.292701 9.2593
O -8.68142 4.15394 2.77606
O -5.64705 -1.19503 7.67819
O -5.64682 -1.19549 3.21792
O -6.71851 -3.41591 6.71635
Si -8.16052 -4.14916 7.08113
Si -5.25349 -2.67085 6.92321
O -7.5603 -1.60032 1.2773
Si -9.10899 -1.92811 1.70285
Si -5.99376 -1.26904 1.57064
O -6.71807 -3.41664 4.17977
Si -8.16039 -4.14929 3.81502
Si -5.25321 -2.67126 3.97293
O -8.62662 -4.38609 5.44806
O -4.71913 -2.39942 5.44808
O -7.56082 -1.5993 9.61885
Si -9.10929 -1.928 9.19326
Si -5.99426 -1.26837 9.32543
O -9.62976 -2.03834 10.8365
O -5.41884 -1.1472 10.8364
O -9.07363 -3.20837 2.7763
O -4.90006 -2.49197 1.63679
O -9.59575 -0.743282 8.11975
O -9.07378 -3.20836 8.11995
O -4.90062 -2.49138 9.25937
O -9.59553 -0.743327 2.77624
O -4.29299 -3.8584 7.67826
O -4.29256 -3.85873 3.21792
O -4.11063 -6.31724 6.71636
Si -4.99259 -7.6734 7.08114
Si -3.21419 -4.93965 6.92327
O -5.74789 -5.16619 1.27733
Si -6.925 -6.2246 1.70289
Si -4.55667 -4.09631 1.57072
O -4.11016 -6.31742 4.17985
Si -4.99243 -7.67334 3.815
Si -3.21368 -4.93985 3.973
O -5.27762 -8.1117 5.44805
O -2.88709 -4.43739 5.44815
O -5.7485 -5.16553 9.61884
Si -6.9251 -6.22449 9.19323
Si -4.55726 -4.09568 9.32547
O -7.32074 -6.58039 10.8365
O -4.11956 -3.70327 10.8365
O -6.25396 -7.31547 2.77636
O -2.99802 -4.60859 1.63673
O -7.93863 -5.44164 8.11967
O -6.25403 -7.31545 8.11988
O -2.99859 -4.60792 9.25947
O -7.93859 -5.44169 2.77635
O -1.78866 -5.48791 7.67836
O -1.78806 -5.48808 3.21805
O -0.401335 -7.52635 6.71662
Si -0.487037 -9.14182 7.08138
Si -0.313772 -5.88508 6.92343
O -2.39192 -7.3487 1.27745
Si -2.88459 -8.85306 1.70301
Si -1.89778 -5.82571 1.57083
O -0.400927 -7.52644 4.17999
Si -0.486953 -9.14191 3.81529
Si -0.313232 -5.88517 3.97315
O -0.514724 -9.66402 5.44835
O -0.281619 -5.28667 5.44828
O -2.39464 -7.34783 9.61897
Si -2.88501 -8.85294 9.19339
Si -1.89882 -5.82538 9.32559
O -3.04989 -9.35891 10.8366
O -1.71671 -5.26644 10.8366
O -1.75848 -9.46273 2.77674
O -0.292033 -5.48921 1.63709
O -4.15417 -8.68162 8.11984
O -1.7585 -9.46247 8.12006
O -0.292915 -5.48944 9.25954
O -4.15399 -8.68139 2.77617
O 1.19491 -5.64696 7.67847
O 1.19548 -5.64689 3.21821
O 3.41583 -6.71845 6.71668
Si 4.14907 -8.16047 7.08144
Si 2.67074 -5.25344 6.92352
O 1.6003 -7.56038 1.27758
Si 1.92807 -9.10906 1.70316
Si 1.26909 -5.99385 1.57094
O 3.41662 -6.7181 4.1801
Si 4.14925 -8.16043 3.81533
Si 2.67123 -5.25325 3.97325
O 4.38602 -8.62662 5.4484
O 2.39936 -4.71912 5.44837
O 1.59907 -7.56071 9.61913
Si 1.92788 -9.10917 9.19358
Si 1.26817 -5.99412 9.32573
O 2.03827 -9.62973 10.8368
O 1.14715 -5.41881 10.8367
O 3.20833 -9.07367 2.77661
O 2.49202 -4.90017 1.63709
O 0.743204 -9.59566 8.12004
O 3.20826 -9.07369 8.12029
O 2.49121 -4.90049 9.25967
O 0.743267 -9.59559 2.77653
O 3.85827 -4.29292 7.67858
O 3.85874 -4.29263 3.21824
O 6.31712 -4.1106 17.4935
Si 7.67327 -4.99255 17.8583
Si 4.93953 -3.21414 17.7004
O 5.16625 -5.74797 12.0545
Si 6.22463 -6.92508 12.4801
Si 4.09635 -4.5568 12.3479
O 6.3174 -4.11022 14.957
Si 7.67334 -4.99247 14.5922
Si 4.93983 -3.21374 14.7501
O 8.11163 -5.27762 16.2252
O 4.43732 -2.88709 16.2253
O 5.16527 -5.74853 20.396
Si 6.22435 -6.92504 19.9704
Si 4.09552 -4.55716 20.1026
O 6.58033 -7.32075 21.6136
O 3.70324 -4.11955 21.6137
O 7.31548 -6.25403 13.5535
O 4.60858 -2.99815 12.4139
O 5.44155 -7.93859 18.8968
O 7.31531 -6.25397 18.8971
O 4.60785 -2.99851 20.0366
O 5.44167 -7.93865 13.5535
O 5.48779 -1.78858 18.4555
O 5.48808 -1.78814 13.9952
O 7.52625 -0.401388 17.4937
Si 9.14172 -0.487051 17.8584
Si 5.88498 -0.313734 17.7005
O 7.34865 -2.39222 12.0545
Si 8.85307 -2.88467 12.4801
Si 5.82571 -1.89795 12.3479
O 7.52642 -0.400893 14.957
Si 9.14189 -0.486951 14.5923
Si 5.88516 -0.313285 14.7502
O 9.66397 -0.514723 16.2254
O 5.28661 -0.281629 16.2253
O 7.34782 -2.39423 20.3961
Si 8.85283 -2.88494 19.9705
Si 5.82528 -1.89866 20.1027
O 9.35886 -3.0499 21.6137
O 5.26638 -1.71676 21.6138
O 9.4627 -1.7585 13.5538
O 5.48921 -0.292215 12.4141
O 8.68146 -4.15413 18.897
O 9.4624 -1.7585 18.8971
O 5.48929 -0.292759 20.0366
O 8.68141 -4.15405 13.5534
O 5.64683 1.19497 18.4554
O 5.64688 1.1954 13.9952
O 6.71836 3.4158 17.4936
Si 8.16037 4.14905 17.8583
Si 5.25332 2.67078 17.7004
O 7.56045 1.59986 12.0545
Si 9.10904 1.928 12.4801
Si 5.99388 1.26887 12.3479
O 6.71802 3.41663 14.957
Si 8.16036 4.14925 14.5922
Si 5.2532 2.67118 14.7501
O 8.62654 4.38601 16.2253
O 4.71904 2.39934 16.2253
O 7.56048 1.59946 20.3961
Si 9.10902 1.92794 19.9706
Si 5.99393 1.26836 20.1027
O 9.62965 2.03827 21.6138
O 5.41872 1.14715 21.6137
O 9.07359 3.20831 13.5535
O 4.90021 2.49182 12.414
O 9.59552 0.743201 18.8971
O 9.07361 3.20826 18.8972
O 4.90028 2.49138 20.0366
O 9.59561 0.74326 13.5536
O 4.29278 3.85834 18.4554
O 4.29261 3.85865 13.995
O 4.11057 6.31712 17.4934
Si 4.9925 7.67329 17.8582
Si 3.21403 4.93959 17.7003
O 5.74818 5.16589 12.0545
Si 6.92504 6.22455 12.48
Si 4.55687 4.09615 12.3479
O 4.1101 6.31742 14.9569
Si 4.99239 7.67334 14.5921
Si 3.2137 4.93979 14.75
O 5.27756 8.11164 16.2251
O 2.88701 4.43733 16.2252
O 5.74811 5.16564 20.396
Si 6.9249 6.22441 19.9704
Si 4.55691 4.09571 20.1026
O 7.32067 6.58032 21.6136
O 4.11947 3.70321 21.6137
O 6.25392 7.31543 13.5534
O 2.99821 4.60842 12.4138
O 7.93846 5.44152 18.8969
O 6.25393 7.31536 18.897
O 2.99827 4.60799 20.0365
O 7.9386 5.44167 13.5536
O 1.78845 5.48788 18.4553
O 1.78813 5.48801 13.995
O 0.401306 7.52631 17.4934
Si 0.486982 9.14178 17.8582
Si 0.313625 5.88505 17.7002
O 2.39266 7.34843 12.0544
Si 2.88467 8.85301 12.4799
Si 1.89807 5.8256 12.3477
O 0.400814 7.52637 14.9568
Si 0.486876 9.14183 14.5921
Si 0.313251 5.8851 14.7499
O 0.514656 9.66397 16.2251
O 0.281558 5.28661 16.2251
O 2.39382 7.348 20.3959
Si 2.88481 8.85291 19.9703
Si 1.89841 5.82542 20.1025
O 3.04982 9.35887 21.6135
O 1.71665 5.2664 21.6136
O 1.75842 9.46261 13.5535
O 0.292288 5.48919 12.4139
O 4.15405 8.68147 18.8969
O 1.75843 9.46249 18.8969
O 0.29254 5.4894 20.0363
O 4.15399 8.68144 13.5532
O -1.1951 5.64692 18.4552
O -1.19541 5.64681 13.9949
O -3.41587 6.71843 17.4932
Si -4.14914 8.16042 17.858
Si -2.67088 5.25337 17.7001
O -1.59989 7.56037 12.0543
Si -1.92804 9.10898 12.4798
Si -1.26883 5.9938 12.3476
O -3.41666 6.71799 14.9567
Si -4.1493 8.16031 14.5919
Si -2.67121 5.25316 14.7498
O -4.38609 8.62654 16.225
O -2.39941 4.71904 16.225
O -1.59971 7.56059 20.3958
Si -1.92806 9.10915 19.9702
Si -1.26857 5.99407 20.1024
O -2.03834 9.62968 21.6135
O -1.1472 5.41876 21.6134
O -3.20835 9.07354 13.5532
O -2.49177 4.9001 12.4137
O -0.743279 9.5956 18.8968
O -3.20836 9.0737 18.8969
O -2.49155 4.90042 20.0363
O -0.743321 9.59555 13.5533
O -3.85847 4.29285 18.4551
O -3.85865 4.29254 13.9947
O -6.31724 4.1106 17.4931
Si -7.67342 4.99254 17.8579
Si -4.9397 3.21408 17.7
O -5.16583 5.7481 12.0541
Si -6.22452 6.92496 12.4797
Si -4.09611 4.55674 12.3475
O -6.31743 4.11005 14.9566
Si -7.67334 4.99235 14.5917
Si -4.93981 3.21365 14.7497
O -8.1117 5.27756 16.2248
O -4.4374 2.88701 16.2249
O -5.16591 5.74807 20.3956
Si -6.22455 6.92496 19.97
Si -4.09586 4.55701 20.1023
O -6.58037 7.32065 21.6133
O -3.70324 4.11947 21.6133
O -7.31542 6.25386 13.5531
O -4.60843 2.99808 12.4135
O -5.44161 7.9385 18.8966
O -7.31549 6.25399 18.8966
O -4.60805 2.99835 20.0362
O -5.44169 7.93854 13.5532
O -5.488 1.78852 18.455
O -5.48801 1.78805 13.9947
O -7.52641 0.401256 17.4932
Si -9.14188 0.486969 17.8579
Si -5.88515 0.313665 17.7
O -7.34848 2.39237 12.0541
Si -8.853 2.88459 12.4796
Si -5.82559 1.89789 12.3475
O -7.52639 0.400849 14.9566
Si -9.14185 0.486878 14.5919
Si -5.88512 0.3132 14.7497
O -9.66403 0.514658 16.2249
O -5.28667 0.281548 16.2249
O -7.348 2.39425 20.3956
Si -8.85301 2.88489 19.97
Si -5.82552 1.89858 20.1022
O -9.35892 3.04981 21.6133
O -5.26646 1.7166 21.6132
O -9.46264 1.7584 13.5533
O -5.48919 0.292107 12.4137
O -8.68163 4.15409 18.8965
O -9.46255 1.75843 18.8966
O -5.48955 0.292697 20.0361
O -8.68142 4.15394 13.5529
O -5.64705 -1.19504 18.455
O -5.64683 -1.19549 13.9948
O -6.71852 -3.41591 17.4932
Si -8.16052 -4.14917 17.858
Si -5.25349 -2.67085 17.7
O -7.56031 -1.60031 12.0541
Si -9.10899 -1.92811 12.4797
Si -5.99377 -1.26904 12.3475
O -6.71807 -3.41665 14.9566
Si -8.16039 -4.14929 14.5919
Si -5.25321 -2.67126 14.7498
O -8.62663 -4.3861 16.2249
O -4.71913 -2.39942 16.2249
O -7.56082 -1.59931 20.3957
Si -9.10929 -1.928 19.9701
Si -5.99427 -1.26837 20.1023
O -9.62976 -2.03834 21.6134
O -5.41885 -1.14719 21.6132
O -9.07363 -3.20837 13.5531
O -4.90007 -2.49197 12.4136
O -9.59575 -0.743283 18.8966
O -9.07379 -3.20837 18.8968
O -4.90063 -2.49138 20.0362
O -9.59554 -0.743329 13.5531
O -4.293 -3.8584 18.4551
O -4.29256 -3.85873 13.9948
O -4.11063 -6.31725 17.4932
Si -4.99259 -7.6734 17.858
Si -3.21419 -4.93965 17.7001
O -5.74789 -5.1662 12.0542
Si -6.925 -6.22461 12.4797
Si -4.55667 -4.09632 12.3476
O -4.11017 -6.31742 14.9567
Si -4.99244 -7.67335 14.5918
Si -3.21369 -4.93985 14.7498
O -5.27762 -8.1117 16.2249
O -2.88709 -4.43739 16.225
O -5.74851 -5.16553 20.3957
Si -6.9251 -6.2245 19.9701
Si -4.55726 -4.09568 20.1023
O -7.32074 -6.58039 21.6133
O -4.11955 -3.70327 21.6133
O -6.25397 -7.31547 13.5532
O -2.99802 -4.60859 12.4136
O -7.93864 -5.44165 18.8965
O -6.25404 -7.31545 18.8967
O -2.9986 -4.60792 20.0363
O -7.93859 -5.44169 13.5532
O -1.78866 -5.48791 18.4552
O -1.78806 -5.48808 13.9949
O -0.401339 -7.52636 17.4935
Si -0.487039 -9.14182 17.8582
Si -0.313776 -5.88508 17.7003
O -2.39193 -7.34869 12.0543
Si -2.88459 -8.85306 12.4798
Si -1.89778 -5.82571 12.3477
O -0.400929 -7.52644 14.9568
Si -0.486955 -9.14191 14.5921
Si -0.313236 -5.88517 14.75
O -0.514726 -9.66402 16.2252
O -0.281623 -5.28667 16.2251
O -2.39464 -7.34783 20.3958
Si -2.88501 -8.85294 19.9702
Si -1.89883 -5.82539 20.1024
O -3.04989 -9.35891 21.6135
O -1.71672 -5.26644 21.6135
O -1.75848 -9.46273 13.5536
O -0.292038 -5.48922 12.4139
O -4.15418 -8.68162 18.8967
O -1.7585 -9.46247 18.8969
O -0.29292 -5.48944 20.0364
O -4.154 -8.6814 13.553
O 1.1949 -5.64696 18.4553
O 1.19548 -5.64689 13.995
O 3.41583 -6.71845 17.4935
Si 4.14907 -8.16047 17.8583
Si 2.67074 -5.25344 17.7004
O 1.60029 -7.56038 12.0544
Si 1.92807 -9.10906 12.48
Si 1.26908 -5.99385 12.3478
O 3.41662 -6.7181 14.9569
Si 4.14925 -8.16043 14.5922
Si 2.67123 -5.25325 14.7501
O 4.38601 -8.62662 16.2252
O 2.39935 -4.71912 16.2252
O 1.59906 -7.56071 20.396
Si 1.92788 -9.10917 19.9704
Si 1.26816 -5.99412 20.1026
O 2.03827 -9.62973 21.6136
O 1.14715 -5.4188 21.6136
O 3.20833 -9.07367 13.5534
O 2.49202 -4.90017 12.4139
O 0.743202 -9.59567 18.8969
O 3.20826 -9.07369 18.8971
O 2.4912 -4.90049 20.0365
O 0.743265 -9.59559 13.5534
O 3.85827 -4.29292 18.4554
O 3.85873 -4.29263 13.9951
O 6.31712 -4.11059 28.2704
Si 7.67327 -4.99255 28.6351
Si 4.93954 -3.21414 28.4772
O 5.16625 -5.74798 22.8313
Si 6.22463 -6.92509 23.2569
Si 4.09635 -4.5568 23.1247
O 6.3174 -4.11022 25.7339
Si 7.67334 -4.99247 25.369
Si 4.93984 -3.21374 25.527
O 8.11163 -5.27762 27.0021
O 4.43733 -2.88709 27.0021
O 5.16528 -5.74852 31.1728
Si 6.22435 -6.92504 30.7472
Si 4.09553 -4.55716 30.8795
O 6.58033 -7.32075 32.3905
O 3.70323 -4.11955 32.3906
O 7.31548 -6.25403 24.3304
O 4.60858 -2.99815 23.1907
O 5.44155 -7.93859 29.6737
O 7.31531 -6.25397 29.6739
O 4.60785 -2.99851 30.8135
O 5.44167 -7.93865 24.3304
O 5.48779 -1.78858 29.2323
O 5.48808 -1.78814 24.772
O 7.52626 -0.401384 28.2705
Si 9.14172 -0.48705 28.6353
Si 5.88498 -0.313732 28.4773
O 7.34866 -2.3922 22.8314
Si 8.85307 -2.88467 23.257
Si 5.82572 -1.89795 23.1248
O 7.52642 -0.400892 25.7339
Si 9.14189 -0.48695 25.3692
Si 5.88516 -0.313283 25.527
O 9.66397 -0.514723 27.0023
O 5.28661 -0.281628 27.0021
O 7.34782 -2.39424 31.1729
Si 8.85283 -2.88494 30.7474
Si 5.82528 -1.89866 30.8795
O 9.35886 -3.0499 32.3906
O 5.26638 -1.71675 32.3906
O 9.46271 -1.7585 24.3306
O 5.48921 -0.292214 23.191
O 8.68147 -4.15413 29.6739
O 9.4624 -1.7585 29.674
O 5.48929 -0.292757 30.8134
O 8.68141 -4.15404 24.3302
O 5.64683 1.19498 29.2323
O 5.64688 1.1954 24.772
O 6.71836 3.4158 28.2704
Si 8.16037 4.14905 28.6352
Si 5.25332 2.67078 28.4772
O 7.56045 1.59986 22.8314
Si 9.10904 1.928 23.257
Si 5.99388 1.26887 23.1247
O 6.71802 3.41664 25.7338
Si 8.16036 4.14925 25.3691
Si 5.2532 2.67118 25.527
O 8.62654 4.38601 27.0021
O 4.71904 2.39935 27.0021
O 7.56048 1.59948 31.1729
Si 9.10902 1.92794 30.7474
Si 5.99393 1.26837 30.8795
O 9.62965 2.03827 32.3906
O 5.41873 1.14714 32.3906
O 9.07359 3.20831 24.3304
O 4.90021 2.49183 23.1908
O 9.59552 0.743202 29.6739
O 9.07361 3.20826 29.674
O 4.90028 2.49138 30.8134
O 9.59561 0.74326 24.3304
O 4.29278 3.85834 29.2322
O 4.29261 3.85865 24.7719
O 4.11057 6.31712 28.2702
Si 4.9925 7.67329 28.635
Si 3.21403 4.93959 28.4771
O 5.74818 5.16589 22.8313
Si 6.92505 6.22455 23.2569
Si 4.55687 4.09615 23.1247
O 4.1101 6.31742 25.7337
Si 4.99239 7.67334 25.3689
Si 3.2137 4.93979 25.5269
O 5.27756 8.11164 27.002
O 2.88701 4.43733 27.002
O 5.74811 5.16564 31.1728
Si 6.9249 6.22441 30.7472
Si 4.55691 4.09571 30.8794
O 7.32066 6.58032 32.3904
O 4.11947 3.70321 32.3905
O 6.25393 7.31543 24.3303
O 2.99821 4.60842 23.1906
O 7.93846 5.44152 29.6737
O 6.25393 7.31536 29.6738
O 2.99826 4.60799 30.8133
O 7.9386 5.44168 24.3304
O 1.78845 5.48788 29.2321
O 1.78813 5.48801 24.7718
O 0.401307 7.52632 28.2702
Si 0.486982 9.14179 28.635
Si 0.313626 5.88505 28.4771
O 2.39266 7.34844 22.8312
Si 2.88467 8.85301 23.2568
Si 1.89807 5.8256 23.1246
O 0.400813 7.52637 25.7336
Si 0.486876 9.14184 25.3689
Si 0.313252 5.8851 25.5268
O 0.514657 9.66397 27.002
O 0.281558 5.28662 27.0019
O 2.39383 7.348 31.1727
Si 2.88481 8.85291 30.7471
Si 1.89841 5.82542 30.8793
O 3.04982 9.35887 32.3904
O 1.71665 5.2664 32.3904
O 1.75842 9.46261 24.3304
O 0.292288 5.48919 23.1907
O 4.15405 8.68148 29.6737
O 1.75843 9.46249 29.6737
O 0.29254 5.48941 30.8132
O 4.15399 8.68144 24.3301
O -1.1951 5.64692 29.232
O -1.19541 5.64682 24.7717
O -3.41587 6.71843 28.2701
Si -4.14914 8.16043 28.6349
Si -2.67088 5.25337 28.4769
O -1.59987 7.56038 22.8311
Si -1.92804 9.10898 23.2567
Si -1.26882 5.9938 23.1245
O -3.41666 6.71799 25.7335
Si -4.14929 8.16032 25.3687
Si -2.67121 5.25316 25.5267
O -4.38609 8.62654 27.0018
O -2.39941 4.71904 27.0018
O -1.59971 7.5606 31.1726
Si -1.92806 9.10915 30.7471
Si -1.26857 5.99407 30.8792
O -2.03834 9.62968 32.3903
O -1.1472 5.41876 32.3902
O -3.20835 9.07354 24.33
O -2.49177 4.90011 23.1905
O -0.743279 9.5956 29.6736
O -3.20836 9.07371 29.6737
O -2.49155 4.90042 30.8131
O -0.743321 9.59555 24.3301
O -3.85847 4.29285 29.2319
O -3.85865 4.29254 24.7716
O -6.31724 4.1106 28.2699
Si -7.67342 4.99254 28.6347
Si -4.9397 3.21408 28.4768
O -5.16584 5.74809 22.831
Si -6.22452 6.92496 23.2565
Si -4.09611 4.55674 23.1244
O -6.31744 4.11005 25.7334
Si -7.67335 4.99235 25.3686
Si -4.93981 3.21365 25.5266
O -8.1117 5.27756 27.0016
O -4.4374 2.88702 27.0017
O -5.1659 5.74809 31.1725
Si -6.22455 6.92496 30.7469
Si -4.09586 4.55701 30.8791
O -6.58037 7.32066 32.3901
O -3.70324 4.11947 32.3902
O -7.31542 6.25386 24.3299
O -4.60842 2.99808 23.1903
O -5.44161 7.93851 29.6734
O -7.31549 6.25399 29.6734
O -4.60805 2.99835 30.813
O -5.44169 7.93854 24.3301
O -5.488 1.78853 29.2318
O -5.488 1.78805 24.7715
O -7.52641 0.401259 28.27
Si -9.14188 0.48697 28.6348
Si -5.88514 0.313667 28.4768
O -7.34847 2.3924 22.8309
Si -8.853 2.88459 23.2565
Si -5.82559 1.8979 23.1243
O -7.52638 0.400849 25.7334
Si -9.14184 0.486879 25.3687
Si -5.88511 0.313202 25.5266
O -9.66402 0.514659 27.0017
O -5.28667 0.281551 27.0017
O -7.34801 2.39424 31.1725
Si -8.85301 2.88489 30.7468
Si -5.82552 1.89858 30.8791
O -9.35892 3.04981 32.3901
O -5.26646 1.7166 32.3901
O -9.46263 1.7584 24.3301
O -5.48919 0.292109 23.1905
O -8.68163 4.1541 29.6734
O -9.46255 1.75843 29.6735
O -5.48955 0.292701 30.813
O -8.68142 4.15394 24.3297
O -5.64705 -1.19503 29.2319
O -5.64683 -1.19549 24.7716
O -6.71851 -3.41591 28.27
Si -8.16052 -4.14916 28.6348
Si -5.25349 -2.67085 28.4769
O -7.5603 -1.60033 22.831
Si -9.10899 -1.92811 23.2565
Si -5.99377 -1.26904 23.1243
O -6.71807 -3.41664 25.7334
Si -8.16039 -4.14929 25.3687
Si -5.25321 -2.67126 25.5266
O -8.62663 -4.38609 27.0017
O -4.71913 -2.39942 27.0018
O -7.56082 -1.59931 31.1725
Si -9.10929 -1.928 30.7469
Si -5.99426 -1.26837 30.8791
O -9.62976 -2.03834 32.3902
O -5.41884 -1.14719 32.3901
O -9.07363 -3.20837 24.33
O -4.90006 -2.49197 23.1905
O -9.59574 -0.743281 29.6734
O -9.07378 -3.20836 29.6736
O -4.90062 -2.49137 30.813
O -9.59553 -0.743328 24.3299
O -4.29299 -3.8584 29.2319
O -4.29256 -3.85873 24.7716
O -4.11063 -6.31724 28.27
Si -4.99259 -7.6734 28.6348
Si -3.21419 -4.93965 28.4769
O -5.7479 -5.16618 22.831
Si -6.925 -6.2246 23.2566
Si -4.55667 -4.09631 23.1244
O -4.11017 -6.31742 25.7335
Si -4.99243 -7.67334 25.3687
Si -3.21368 -4.93985 25.5267
O -5.27762 -8.1117 27.0017
O -2.88709 -4.43739 27.0018
O -5.74851 -5.16553 31.1725
Si -6.9251 -6.22449 30.7469
Si -4.55726 -4.09567 30.8791