2880
 Atoms. Timestep: 36868
O 20.0314 2.64724 1.91281
Si 21.6463 2.72395 2.19809
Si 18.4989 2.10362 2.10715
O 20.2429 -0.535641 4.02923
Si 21.818 -0.187706 3.68886
Si 18.6275 -0.411143 3.81826
O 22.348 -0.0125465 5.26204
O 22.111 1.2541 2.87217
O 22.1696 -1.64348 2.90776
O 18.051 0.0236633 5.26441
O 18.367 0.585946 2.58248
O 18.029 -1.7467 3.15875
O 19.4614 5.75583 -2.7876
Si 21.0765 5.80711 -2.46598
Si 17.928 5.24457 -2.55127
O 20.0344 2.61858 -0.669769
Si 21.6179 2.94802 -0.961489
Si 18.4115 2.77752 -0.837966
O 22.1562 2.90158 0.618325
O 21.709 4.48661 -1.63677
O 22.1998 1.62228 -1.8245
O 17.8773 2.37075 0.635655
O 17.9225 4.22041 -1.3112
O 18.0573 1.78944 -2.05708
O 18.9115 7.40941 1.91745
Si 20.2899 8.21836 2.29031
Si 17.4276 6.80788 2.2217
O 19.6866 4.8109 4.16357
Si 21.1617 5.47661 3.82185
Si 18.1008 4.4292 3.97746
O 21.6336 5.76117 5.39794
O 21.1374 6.95582 3.01856
O 21.8785 4.15408 3.05834
O 17.4643 4.66775 5.44619
O 17.482 5.30978 2.7807
O 17.9218 2.97148 3.33168
O 17.4426 10.4647 -2.80324
Si 18.9283 11.0517 -2.42872
Si 16.0438 9.68587 -2.49755
O 18.7173 7.78444 -0.541271
Si 20.1796 8.46845 -0.865366
Si 17.1118 7.48316 -0.705056
O 20.722 8.56364 0.712854
O 19.8918 9.9679 -1.57478
O 21.0739 7.31545 -1.70793
O 16.708 6.98163 0.781742
O 16.2447 8.71372 -1.23518
O 17.0293 6.40386 -1.89696
O 16.5051 11.939 1.92185
Si 17.5403 13.1794 2.24634
Si 15.1524 11.0551 2.15883
O 17.6117 10.0926 4.17862
Si 19.0554 10.8134 3.8511
Si 16.3789 9.02117 4.01201
O 19.4689 11.175 5.43003
O 18.7139 12.2344 3.0107
O 20.0443 9.6502 3.14057
O 15.7299 9.01961 5.4964
O 15.4927 9.62882 2.8133
O 16.8019 7.5751 3.48624
O 14.4317 14.3146 -2.80906
Si 15.4843 15.5428 -2.5297
Si 13.0494 13.4571 -2.62251
O 15.8913 12.7152 -0.5622
Si 17.3335 13.4497 -0.902212
Si 14.6119 11.703 -0.743519
O 17.8521 13.641 0.673409
O 16.7485 14.8352 -1.6678
O 18.4711 12.5038 -1.70509
O 14.4053 11.056 0.724759
O 13.3606 12.4661 -1.3956
O 14.9128 10.6703 -1.94069
O 12.9204 15.7956 1.76925
Si 13.5773 17.2709 2.10163
Si 11.8462 14.5827 1.97798
O 14.3993 14.3469 4.04038
Si 15.6348 15.3891 3.74496
Si 13.5277 12.9689 3.87234
O 15.9371 15.835 5.32579
O 14.95 16.6721 2.88827
O 16.8955 14.5008 3.06766
O 12.8724 12.804 5.34296
O 12.5434 13.3 2.64469
O 14.3608 11.6923 3.40495
O 10.2792 17.5256 -2.97866
Si 10.9634 18.992 -2.69409
Si 9.17513 16.3271 -2.80544
O 12.0534 16.4696 -0.702249
Si 13.303 17.4883 -1.04552
Si 11.162 15.1168 -0.909425
O 13.765 17.7987 0.528742
O 12.3764 18.6616 -1.834
O 14.6172 16.8191 -1.8573
O 11.1526 14.39 0.532423
O 9.74481 15.4595 -1.57824
O 11.7845 14.3058 -2.15121
O 8.39099 18.5391 1.60919
Si 8.63169 20.1361 1.93811
Si 7.68174 17.081 1.8095
O 10.2241 17.5439 3.8638
Si 11.13 18.8844 3.57877
Si 9.75398 15.9836 3.68783
O 11.3085 19.3955 5.15854
O 10.1154 19.9333 2.72764
O 12.587 18.3725 2.9046
O 9.17664 15.6483 5.1619
O 8.70324 16.0366 2.47274
O 10.8948 14.9749 3.21429
O 5.44759 19.5038 -3.14746
Si 5.68693 21.1033 -2.86257
Si 4.69828 18.0584 -2.98538
O 7.41284 18.9592 -0.873031
Si 8.33927 20.2797 -1.21234
Si 6.91997 17.4166 -1.08353
O 8.68609 20.6985 0.366692
O 7.1407 21.1646 -2.0094
O 9.78874 19.9884 -2.0164
O 7.09317 16.7078 0.35448
O 5.46713 17.3674 -1.75757
O 7.73119 16.8035 -2.32892
O 3.21759 19.9023 1.51887
Si 3.06627 21.5227 1.78568
Si 2.91845 18.2979 1.66181
O 5.29271 19.4879 3.65411
Si 5.82825 21.0208 3.40608
Si 5.264 17.8568 3.49898
O 5.88286 21.5706 4.98175
O 4.55149 21.7465 2.56792
O 7.36923 20.9263 2.7283
O 4.85453 17.3904 4.99016
O 4.18231 17.5816 2.34424
O 6.62976 17.1859 3.0199
O 0.300464 20.1508 -3.30314
Si 0.0441823 21.7467 -3.02621
Si -0.0471322 18.566 -3.15531
O 2.2927 20.1163 -1.03241
Si 2.81599 21.6399 -1.37424
Si 2.24904 18.5022 -1.25827
O 3.0081 22.1015 0.22044
O 1.43898 22.189 -2.18459
O 4.29719 21.7479 -2.16612
O 2.58606 17.8245 0.158984
O 0.872429 18.0688 -1.94449
O 3.18316 18.149 -2.51353
O -2.4806 19.7695 1.82891
Si -2.72029 21.4055 1.67486
Si -2.18847 18.1577 1.60462
O -0.0369856 19.9965 3.36298
Si 0.122816 21.6285 3.22987
Si 0.317405 18.3959 3.29483
O 0.0602908 22.1963 4.79935
O -1.3118 21.9973 2.40794
O 1.63104 21.957 2.55366
O 0.205372 17.9195 4.83058
O -0.810017 17.767 2.33638
O 1.75146 17.9819 2.71752
O -4.89375 19.522 -3.40247
Si -5.59212 20.9849 -3.15591
Si -4.80851 17.9042 -3.28763
O -3.026 19.9239 -1.24378
Si -2.86848 21.5322 -1.52041
Si -2.52225 18.3923 -1.40299
O -2.82261 21.9414 0.0985661
O -4.33154 21.7568 -2.33703
O -1.45202 22.0076 -2.29797
O -2.14451 17.7836 0.0346837
O -3.56248 17.5801 -2.3206
O -1.52415 18.2892 -2.65672
O -7.98757 18.3661 1.66978
Si -8.35085 19.9769 1.55884
Si -7.28186 16.8876 1.52019
O -4.99803 19.2946 2.97528
Si -5.58802 20.8357 3.08194
Si -4.78916 17.669 3.11959
O -5.73939 21.3626 4.65831
O -7.09962 20.8136 2.32683
O -4.24677 21.5983 2.37994
O -4.83435 17.2469 4.67998
O -5.85037 16.8337 2.24729
O -3.36161 17.3938 2.41245
O -9.85704 17.8599 -3.61247
Si -10.9432 19.0399 -3.27124
Si -9.30678 16.3552 -3.38717
O -8.01345 18.5316 -1.36005
Si -8.36437 20.1085 -1.63927
Si -7.15436 17.1545 -1.49493
O -8.49456 20.5014 -0.0188966
O -9.84627 20.0335 -2.44843
O -7.09121 20.9096 -2.39449
O -7.16032 16.4824 -0.0345375
O -7.87077 16.3683 -2.69005
O -5.68618 17.3205 -2.07289
O -12.3462 16.1461 1.19386
Si -13.4558 17.3372 1.41105
Si -11.7222 14.6355 1.28574
O -10.2758 17.3487 2.84728
Si -11.0304 18.8217 2.97582
Si -9.64346 15.8431 3.10376
O -11.2421 19.3402 4.547
O -12.5189 18.4731 2.24676
O -9.89337 19.8453 2.25092
O -9.4382 15.5551 4.66938
O -10.5429 14.7391 2.36698
O -8.23518 15.8709 2.32468
O -14.2889 14.6688 -3.73262
Si -15.5629 15.6671 -3.37647
Si -13.1254 13.518 -3.56196
O -12.6593 16.059 -1.49572
Si -13.4244 17.4807 -1.76372
Si -11.3982 15.0447 -1.66245
O -13.7383 17.834 -0.159671
O -14.7919 16.9549 -2.6036
O -12.365 18.579 -2.48614
O -11.2399 14.3533 -0.222401
O -11.7974 14.1157 -2.90315
O -10.0714 15.7869 -2.10313
O -16.5144 12.1544 1.0008
Si -17.6324 13.3255 1.34587
Si -15.2351 11.1348 1.16714
O -14.8572 14.1059 3.23508
Si -15.7155 15.464 2.8994
Si -13.6794 13.0157 2.96169
O -16.0031 15.9518 4.47109
O -17.0042 14.6807 2.13191
O -14.8448 16.6701 2.10181
O -12.9735 12.8713 4.40498
O -14.2675 11.665 2.33728
O -12.7462 13.5099 1.7574
O -17.7787 10.1873 -3.60825
Si -19.1044 11.1131 -3.31893
Si -16.2121 9.73443 -3.45762
O -16.0337 12.858 -1.46195
Si -17.4831 13.5458 -1.81283
Si -14.8234 11.8073 -1.74032
O -17.9831 13.7533 -0.231964
O -18.5903 12.5608 -2.61954
O -16.8458 14.9065 -2.58866
O -14.6023 11.0767 -0.317806
O -15.2276 10.8959 -2.99606
O -13.5401 12.5244 -2.36831
O -19.1658 7.42134 1.11058
Si -20.4839 8.34622 1.46565
Si -17.623 6.93342 1.3231
O -17.7302 10.295 3.23458
Si -19.1927 10.9796 2.94956
Si -16.5447 9.1868 3.04068
O -19.6052 11.3105 4.53471
O -20.1855 9.80882 2.25125
O -18.8189 12.3972 2.11142
O -15.8665 9.17236 4.50527
O -17.0367 7.74726 2.57653
O -15.6715 9.73594 1.81197
O -19.6319 5.2006 -3.30353
Si -21.1695 5.76383 -3.14268
Si -17.9921 5.20326 -3.23461
O -18.7257 8.36292 -1.38407
Si -20.3288 8.59232 -1.6903
Si -17.2629 7.6567 -1.56552
O -20.8973 8.66676 -0.121719
O -21.0996 7.30814 -2.4663
O -20.1483 10.0787 -2.48265
O -16.8925 7.10619 -0.0990687
O -17.3199 6.56067 -2.73617
O -16.2343 8.68185 -2.2452
O -20.2688 2.25405 1.29103
Si -21.7823 2.79334 1.62323
Si -18.6662 2.31324 1.52067
O -19.6859 5.51866 3.3961
Si -21.2923 5.68577 3.11733
Si -18.2567 4.74904 3.24769
O -21.7329 5.83446 4.72276
O -21.9032 4.2844 2.40323
O -21.3646 7.14911 2.27509
O -17.5559 4.88192 4.68644
O -18.4128 3.23786 2.80118
O -17.5655 5.48847 2.00666
O -20.0215 -0.0760052 -2.87839
Si -21.6677 0.0302359 -2.97557
Si -18.406 0.204899 -3.01016
O -19.9688 3.10808 -1.57653
Si -21.6185 2.97114 -1.55776
Si -18.3547 2.82708 -1.42521
O -22.1899 2.95169 0.0091892
O -22.0628 1.52364 -2.29859
O -21.8834 4.46798 -2.31623
O -17.978 2.71773 0.132732
O -17.9 1.506 -2.21724
O -17.6335 4.04598 -2.18191
O -19.9379 -2.98325 1.50862
Si -21.5558 -2.89253 1.75497
Si -18.4075 -2.45241 1.62025
O -20.1995 0.27604 3.54106
Si -21.7929 0.00642673 3.26341
Si -18.5977 0.0108228 3.40702
O -22.2102 -0.0221939 4.88244
O -22.0545 -1.47593 2.51257
O -22.2842 1.40384 2.44997
O -17.982 0.26494 4.87088
O -18.1794 -1.4026 2.8179
O -18.1387 0.977774 2.21804
O -19.2506 -5.39395 -2.67648
Si -20.8698 -5.7136 -2.84049
Si -17.6686 -4.98598 -2.90847
O -19.7953 -2.55164 -1.62651
Si -21.4214 -2.82587 -1.44747
Si -18.1695 -2.3651 -1.41142
O -21.9543 -2.89293 0.132294
O -21.5962 -4.36203 -2.13149
O -22.0331 -1.43223 -2.19586
O -17.7967 -2.2049 0.153582
O -17.4112 -3.60322 -2.1161
O -17.7484 -1.05351 -2.24777
O -18.5628 -8.04224 1.62554
Si -20.1374 -8.39899 1.89074
Si -17.2543 -7.09457 1.79186
O -19.6437 -4.84859 3.699
Si -21.0586 -5.62133 3.40018
Si -18.0378 -4.73636 3.5311
O -21.4136 -5.81839 5.02185
O -20.9476 -7.1141 2.62295
O -21.8068 -4.35008 2.57266
O -17.3171 -4.88543 4.95724
O -17.624 -5.63144 2.26545
O -17.657 -3.4728 2.61526
O -17.2301 -10.5338 -3.08775
Si -18.7471 -11.076 -2.76978
Si -15.8495 -9.70318 -2.82737
O -18.5573 -7.63978 -1.134
Si -19.995 -8.4264 -1.28808
Si -16.9401 -7.3635 -1.1852
O -20.5447 -8.59267 0.280872
O -19.7079 -9.93836 -1.97902
O -20.8894 -7.24239 -2.10592
O -16.5529 -7.06017 0.347778
O -16.0285 -8.56419 -1.71507
O -16.776 -6.10211 -2.16831
O -16.324 -12.1246 1.5713
Si -17.3944 -13.3176 1.92821
Si -14.9868 -11.2409 1.84972
O -17.6005 -9.98169 3.85571
Si -18.9208 -10.9185 3.50341
Si -16.1901 -9.15634 3.67
O -19.2975 -11.2512 5.09854
O -18.5369 -12.3514 2.70731
O -19.9729 -9.85124 2.73262
O -15.5119 -9.14751 5.13102
O -15.3396 -9.81475 2.47756
O -16.4323 -7.72269 3.01026
O -14.2909 -14.4363 -3.11124
Si -15.3629 -15.6449 -2.82718
Si -12.9106 -13.5812 -2.90952
O -15.7809 -12.7213 -0.901919
Si -17.2013 -13.5025 -1.22999
Si -14.4568 -11.7612 -1.07184
O -17.7168 -13.7356 0.342815
O -16.6228 -14.8977 -1.98717
O -18.3349 -12.5312 -2.01555
O -14.2235 -11.206 0.427905
O -13.2231 -12.5613 -1.70959
O -14.7132 -10.6411 -2.19749
O -12.7875 -15.9421 1.47224
Si -13.4581 -17.4106 1.80527
Si -11.7049 -14.7374 1.68328
O -14.2584 -14.5064 3.74326
Si -15.5101 -15.5287 3.44457
Si -13.3797 -13.1332 3.58418
O -15.8168 -15.9533 5.03099
O -14.8291 -16.815 2.59284
O -16.7622 -14.6462 2.74586
O -12.7241 -12.9508 5.04926
O -12.3956 -13.456 2.35598
O -14.2153 -11.8646 3.11012
O -10.1348 -17.6718 -3.27148
Si -10.8404 -19.1271 -2.98219
Si -9.02818 -16.4762 -3.08979
O -11.9288 -16.5991 -1.00193
Si -13.1865 -17.6088 -1.34363
Si -11.0235 -15.2549 -1.20585
O -13.6452 -17.9303 0.229626
O -12.2576 -18.7846 -2.13031
O -14.5049 -16.925 -2.1425
O -11.0071 -14.54 0.241441
O -9.6048 -15.6071 -1.86662
O -11.6437 -14.4259 -2.43583
O -8.28324 -18.6944 1.30954
Si -8.54189 -20.2867 1.64801
Si -7.56695 -17.241 1.51844
O -10.1073 -17.6935 3.58019
Si -11.0242 -19.0261 3.29165
Si -9.62517 -16.137 3.40536
O -11.1946 -19.5343 4.87321
O -10.025 -20.0772 2.43058
O -12.478 -18.5129 2.61605
O -9.03608 -15.8009 4.87492
O -8.58474 -16.193 2.18135
O -10.7628 -15.1279 2.9272
O -5.26201 -19.6581 -3.43513
Si -5.55263 -21.2485 -3.14145
Si -4.51731 -18.2087 -3.2556
O -7.27848 -19.1058 -1.15989
Si -8.21496 -20.4197 -1.49886
Si -6.76754 -17.5687 -1.37137
O -8.57714 -20.8449 0.0747779
O -7.00454 -21.3022 -2.28351
O -9.66381 -20.1256 -2.30648
O -6.95 -16.8686 0.0728871
O -5.30515 -17.5283 -2.0303
O -7.5812 -16.9478 -2.6126
O -3.20359 -20.1454 1.14981
Si -3.03624 -21.7494 1.49275
Si -2.90107 -18.5527 1.35457
O -5.23875 -19.6628 3.41754
Si -5.76542 -21.1931 3.13354
Si -5.1847 -18.0343 3.23818
O -5.78973 -21.732 4.71369
O -4.52349 -21.9401 2.27137
O -7.30522 -21.0865 2.46267
O -4.70701 -17.5571 4.71
O -4.1625 -17.8137 2.01658
O -6.5481 -17.3596 2.7581
O -0.0367452 -20.282 -3.59453
Si 0.10351 -21.8918 -3.28941
Si 0.294457 -18.6848 -3.42522
O -2.12918 -20.2757 -1.32237
Si -2.68316 -21.7928 -1.65327
Si -2.04547 -18.6584 -1.53817
O -2.92152 -22.2975 -0.080035
O -1.28254 -22.3262 -2.43343
O -4.15328 -21.8973 -2.4669
O -2.40745 -18.0316 -0.0933337
O -0.646948 -18.2329 -2.20163
O -2.99657 -18.276 -2.77849
O 2.25034 -20.137 1.02939
Si 2.67595 -21.6965 1.38156
Si 1.98384 -18.5253 1.21845
O -0.0392114 -20.2803 3.28541
Si -0.124897 -21.8914 2.98718
Si -0.389888 -18.6968 3.06869
O 0.00115125 -22.4215 4.56571
O 1.27451 -22.2622 2.12687
O -1.63473 -22.1973 2.31001
O -0.0542169 -18.1066 4.53907
O 0.539383 -18.2236 1.8456
O -1.88088 -18.3923 2.58846
O 5.54798 -19.444 -3.68892
Si 5.7781 -21.0443 -3.33658
Si 5.14502 -17.8612 -3.49852
O 3.0714 -20.0515 -1.41499
Si 2.99334 -21.654 -1.76905
Si 2.78303 -18.4728 -1.69834
O 2.90099 -22.2033 -0.194737
O 4.4991 -21.7735 -2.52028
O 1.61898 -22.1501 -2.60379
O 2.26368 -17.9323 -0.262807
O 4.06721 -17.7338 -2.30865
O 1.77884 -18.3502 -2.94646
O 7.7003 -18.6501 1.13163
Si 8.20855 -20.1854 1.42961
Si 6.759 -17.3174 1.29753
O 4.75797 -19.6919 3.3016
Si 5.46866 -21.1304 2.94889
Si 4.39149 -18.1291 3.01978
O 5.7761 -21.5971 4.5224
O 6.9242 -21.0319 2.11147
O 4.13888 -21.8485 2.20002
O 4.6472 -17.4288 4.45758
O 5.26478 -17.6063 1.77659
O 2.91965 -17.9701 2.40596
O 10.5399 -17.2578 -3.56507
Si 11.0263 -18.796 -3.22429
Si 9.63004 -15.9162 -3.35752
O 7.69829 -18.6516 -1.42988
Si 8.41902 -20.0949 -1.72919
Si 7.38585 -17.0601 -1.64732
O 8.51678 -20.6295 -0.15036
O 9.92366 -19.7698 -2.40767
O 7.28746 -20.9981 -2.58885
O 6.84252 -16.6528 -0.176737
O 8.62846 -16.1801 -2.12611
O 6.34536 -17.0025 -2.87133
O 12.2381 -15.9844 1.2907
Si 13.1271 -17.3365 1.5775
Si 10.9869 -14.94 1.46849
O 9.61131 -17.7969 3.39354
Si 10.7163 -18.9755 3.06644
Si 8.8938 -16.344 3.18024
O 11.1395 -19.3427 4.63846
O 12.1025 -18.4896 2.24749
O 9.6491 -20.0284 2.28984
O 8.97034 -15.6326 4.62987
O 9.61485 -15.5989 1.94932
O 7.44245 -16.5173 2.51478
O 14.627 -13.9116 -3.40587
Si 15.4938 -15.2729 -3.06989
Si 13.4033 -12.8494 -3.19359
O 12.2211 -15.9975 -1.29712
Si 13.3053 -17.1992 -1.5819
Si 11.5235 -14.525 -1.47959
O 13.5396 -17.6846 -0.00207758
O 14.6774 -16.4954 -2.25286
O 12.4649 -18.3784 -2.44454
O 10.8992 -14.2739 -0.00579355
O 12.5025 -13.3599 -1.96145
O 10.4939 -14.7347 -2.69767
O 15.9448 -12.2499 1.44693
Si 17.1519 -13.3279 1.73334
Si 14.4699 -11.5568 1.62781
O 13.8738 -14.6665 3.55417
Si 15.2394 -15.5276 3.22103
Si 12.8058 -13.4476 3.34244
O 15.7426 -15.7738 4.79329
O 16.4565 -14.7045 2.40315
O 14.4771 -16.8175 2.44251
O 12.6949 -12.7425 4.79299
O 13.3092 -12.5403 2.112
O 11.4462 -13.9912 2.68357
O 17.729 -9.63521 -3.24784
Si 18.9155 -10.7297 -2.91386
Si 16.2748 -8.91998 -3.036
O 15.9351 -12.2625 -1.13935
Si 17.2893 -13.1486 -1.42593
Si 14.8827 -11.0184 -1.32082
O 17.6394 -13.5589 0.153729
O 18.4376 -12.1192 -2.0962
O 16.778 -14.5022 -2.29011
O 14.2155 -10.9348 0.153422
O 15.5301 -9.6417 -1.80512
O 13.938 -11.4859 -2.53602
O 18.5844 -7.69455 1.6016
Si 20.0266 -8.42845 1.88889
Si 16.9818 -7.39941 1.78343
O 17.1958 -10.5557 3.71103
Si 18.7352 -11.0413 3.37695
Si 15.8522 -9.64961 3.49904
O 19.2838 -11.1513 4.9495
O 19.7037 -9.93639 2.55914
O 18.3254 -12.4822 2.59806
O 15.5647 -8.99558 4.94936
O 16.1085 -8.64501 2.26792
O 14.6751 -10.5219 2.84206
O 19.6467 -4.7106 -3.09167
Si 21.0727 -5.46699 -2.7579
Si 18.058 -4.38983 -2.88035
O 18.5783 -7.708 -0.984091
Si 20.1136 -8.21962 -1.27031
Si 17.2437 -6.77284 -1.165
O 20.5566 -8.52808 0.3092
O 20.963 -6.93206 -1.93981
O 19.9626 -9.65821 -2.13507
O 16.5777 -6.86133 0.309467
O 17.5203 -5.27701 -1.64977
O 16.447 -7.46523 -2.37889
O 19.9816 -2.61754 1.75771
Si 21.5634 -2.95863 2.04504
Si 18.357 -2.7437 1.93984
O 19.3663 -5.73926 3.86853
Si 20.9784 -5.81489 3.53297
Si 17.8363 -5.20583 3.65577
O 21.5365 -5.78171 5.10573
O 21.6342 -4.49913 2.71603
O 20.9473 -7.31234 2.75318
O 17.3913 -4.6439 5.10481
O 17.8316 -4.17173 2.42257
O 16.9186 -6.34774 2.99896
O 20.2462 0.543626 -2.93211
Si 21.818 0.172582 -2.60199
Si 18.6285 0.443646 -2.72129
O 19.9781 -2.63484 -0.828269
Si 21.5933 -2.73482 -1.11433
Si 18.4497 -2.0691 -1.0075
O 22.1007 -2.92054 0.465049
O 22.0849 -1.27225 -1.78343
O 21.8133 -4.16435 -1.97954
O 17.8284 -2.32484 0.466772
O 18.3388 -0.551517 -1.4899
O 17.8546 -2.9396 -2.2222
O 20.0314 2.64724 11.3486
Si 21.6463 2.72395 11.6339
Si 18.4989 2.10362 11.543
O 20.2429 -0.53564 13.465
Si 21.818 -0.187706 13.1247
Si 18.6275 -0.411143 13.2541
O 22.348 -0.0125465 14.6979
O 22.111 1.2541 12.308
O 22.1696 -1.64348 12.3436
O 18.051 0.0236632 14.7002
O 18.367 0.585947 12.0183
O 18.029 -1.7467 12.5946
O 19.4614 5.75583 6.64822
Si 21.0765 5.80711 6.96984
Si 17.928 5.24457 6.88454
O 20.0344 2.61858 8.76605
Si 21.6179 2.94802 8.47433
Si 18.4115 2.77752 8.59785
O 22.1562 2.90158 10.0541
O 21.709 4.48661 7.79905
O 22.1998 1.62228 7.61131
O 17.8773 2.37075 10.0715
O 17.9225 4.22041 8.12462
O 18.0573 1.78944 7.37874
O 18.9115 7.40941 11.3533
Si 20.2899 8.21836 11.7261
Si 17.4276 6.80788 11.6575
O 19.6866 4.8109 13.5994
Si 21.1617 5.47661 13.2577
Si 18.1008 4.4292 13.4133
O 21.6336 5.76117 14.8338
O 21.1374 6.95582 12.4544
O 21.8785 4.15408 12.4942
O 17.4643 4.66775 14.882
O 17.482 5.30978 12.2165
O 17.9218 2.97148 12.7675
O 17.4426 10.4647 6.63258
Si 18.9283 11.0517 7.0071
Si 16.0438 9.68587 6.93827
O 18.7173 7.78444 8.89455
Si 20.1796 8.46845 8.57045
Si 17.1118 7.48316 8.73076
O 20.722 8.56364 10.1487
O 19.8918 9.9679 7.86104
O 21.0739 7.31545 7.72789
O 16.708 6.98163 10.2176
O 16.2447 8.71372 8.20063
O 17.0293 6.40386 7.53886
O 16.5051 11.939 11.3577
Si 17.5403 13.1794 11.6822
Si 15.1524 11.0551 11.5946
O 17.6117 10.0926 13.6144
Si 19.0554 10.8134 13.2869
Si 16.3789 9.02117 13.4478
O 19.4689 11.175 14.8658
O 18.7139 12.2344 12.4465
O 20.0443 9.6502 12.5764
O 15.7299 9.01961 14.9322
O 15.4927 9.62882 12.2491
O 16.8019 7.5751 12.9221
O 14.4317 14.3146 6.62676
Si 15.4843 15.5428 6.90612
Si 13.0494 13.4571 6.81331
O 15.8913 12.7152 8.87362
Si 17.3335 13.4497 8.53361
Si 14.6119 11.703 8.6923
O 17.8521 13.641 10.1092
O 16.7485 14.8352 7.76802
O 18.4711 12.5038 7.73073
O 14.4053 11.056 10.1606
O 13.3606 12.4661 8.04021
O 14.9128 10.6703 7.49512
O 12.9204 15.7956 11.2051
Si 13.5773 17.2709 11.5374
Si 11.8462 14.5827 11.4138
O 14.3993 14.3469 13.4762
Si 15.6348 15.3891 13.1808
Si 13.5277 12.9689 13.3082
O 15.9371 15.835 14.7616
O 14.95 16.6721 12.3241
O 16.8955 14.5008 12.5035
O 12.8724 12.804 14.7788
O 12.5434 13.3 12.0805
O 14.3608 11.6923 12.8408
O 10.2792 17.5256 6.45715
Si 10.9634 18.992 6.74172
Si 9.17513 16.3271 6.63037
O 12.0534 16.4696 8.73357
Si 13.303 17.4883 8.3903
Si 11.162 15.1168 8.52639
O 13.765 17.7987 9.96456
O 12.3764 18.6616 7.60181
O 14.6172 16.8191 7.57852
O 11.1526 14.39 9.96824
O 9.74482 15.4595 7.85758
O 11.7845 14.3058 7.28461
O 8.39099 18.5391 11.045
Si 8.63169 20.1361 11.3739
Si 7.68176 17.081 11.2453
O 10.2241 17.5439 13.2996
Si 11.13 18.8844 13.0146
Si 9.75398 15.9836 13.1236
O 11.3085 19.3955 14.5944
O 10.1154 19.9333 12.1635
O 12.587 18.3725 12.3404
O 9.17664 15.6483 14.5977
O 8.70325 16.0366 11.9086
O 10.8949 14.9749 12.6501
O 5.44757 19.5038 6.28837
Si 5.68693 21.1033 6.57326
Si 4.69826 18.0584 6.45046
O 7.41284 18.9592 8.56278
Si 8.33927 20.2797 8.22347
Si 6.91998 17.4166 8.35228
O 8.68609 20.6984 9.80251
O 7.1407 21.1646 7.42642
O 9.78874 19.9884 7.41942
O 7.09319 16.7078 9.79028
O 5.46713 17.3674 7.67825
O 7.7312 16.8035 7.10688
O 3.21759 19.9023 10.9547
Si 3.06627 21.5227 11.2215
Si 2.91844 18.2979 11.0977
O 5.29273 19.4879 13.0899
Si 5.82825 21.0208 12.8419
Si 5.26401 17.8568 12.9348
O 5.88286 21.5706 14.4176
O 4.55149 21.7465 12.0037
O 7.36923 20.9263 12.1641
O 4.85455 17.3904 14.426
O 4.18231 17.5816 11.7801
O 6.62976 17.1859 12.4557
O 0.300519 20.1509 6.13268
Si 0.0442017 21.7467 6.4096
Si -0.04709 18.566 6.28049
O 2.29271 20.1163 8.40343
Si 2.816 21.6399 8.06159
Si 2.24903 18.5022 8.17759
O 3.00809 22.1015 9.65627
O 1.43899 22.189 7.25123
O 4.2972 21.7479 7.26971
O 2.58602 17.8245 9.59485
O 0.872427 18.0689 7.49134
O 3.18315 18.149 6.92233
O -2.48067 19.7695 11.2647
Si -2.72029 21.4056 11.1107
Si -2.18845 18.1577 11.0404
O -0.036997 19.9966 12.7989
Si 0.122806 21.6285 12.6657
Si 0.317385 18.3959 12.7307
O 0.0602721 22.1963 14.2352
O -1.3118 21.9973 11.8438
O 1.63103 21.957 11.9895
O 0.205301 17.9195 14.2664
O -0.809989 17.7671 11.7721
O 1.75148 17.982 12.1534
O -4.89374 19.522 6.03334
Si -5.59212 20.9849 6.2799
Si -4.80852 17.9042 6.14818
O -3.02599 19.9239 8.192
Si -2.86847 21.5322 7.91539
Si -2.52222 18.3923 8.03278
O -2.8226 21.9414 9.53436
O -4.33153 21.7568 7.09877
O -1.45201 22.0076 7.13783
O -2.14447 17.7836 9.47045
O -3.56246 17.5801 7.11518
O -1.52413 18.2893 6.77905
O -7.98763 18.3661 11.1055
Si -8.35084 19.9769 10.9947
Si -7.28184 16.8876 10.956
O -4.99789 19.2947 12.4112
Si -5.588 20.8357 12.5178
Si -4.78911 17.669 12.5554
O -5.73938 21.3626 14.0941
O -7.09959 20.8136 11.7626
O -4.24677 21.5983 11.8157
O -4.8343 17.2469 14.1158
O -5.85034 16.8337 11.6831
O -3.36158 17.3938 11.8482
O -9.85704 17.8599 5.82334
Si -10.9432 19.04 6.16457
Si -9.30676 16.3553 6.04864
O -8.01345 18.5316 8.07578
Si -8.36437 20.1086 7.79654
Si -7.15435 17.1545 7.94089
O -8.49455 20.5014 9.41692
O -9.84626 20.0335 6.98738
O -7.09121 20.9096 7.04134
O -7.16031 16.4824 9.40128
O -7.87075 16.3683 6.74576
O -5.68617 17.3206 7.36295
O -12.3462 16.1461 10.6297
Si -13.4558 17.3372 10.8469
Si -11.7222 14.6355 10.7216
O -10.2757 17.3487 12.2831
Si -11.0304 18.8217 12.4116
Si -9.64343 15.8431 12.5396
O -11.242 19.3402 13.9828
O -12.5188 18.4731 11.6826
O -9.89335 19.8453 11.6867
O -9.43819 15.5551 14.1052
O -10.5429 14.7391 11.8028
O -8.23515 15.871 11.7605
O -14.2888 14.6688 5.70322
Si -15.5629 15.6671 6.05936
Si -13.1254 13.518 5.87389
O -12.6593 16.059 7.94011
Si -13.4244 17.4807 7.67211
Si -11.3982 15.0447 7.77338
O -13.7382 17.834 9.27616
O -14.7919 16.9549 6.83224
O -12.365 18.5791 6.94968
O -11.2399 14.3534 9.21342
O -11.7974 14.1157 6.53268
O -10.0714 15.787 7.33269
O -16.5145 12.1543 10.4367
Si -17.6324 13.3254 10.7817
Si -15.2352 11.1347 10.6029
O -14.8572 14.1058 12.6708
Si -15.7155 15.464 12.3352
Si -13.6794 13.0157 12.3975
O -16.0031 15.9518 13.9069
O -17.0042 14.6807 11.5677
O -14.8448 16.6701 11.5376
O -12.9735 12.8713 13.8408
O -14.2675 11.6649 11.773
O -12.7462 13.5099 11.1932
O -17.7787 10.1874 5.82751
Si -19.1045 11.1132 6.11686
Si -16.2122 9.73462 5.97808
O -16.0337 12.8581 7.97391
Si -17.4832 13.5459 7.62299
Si -14.8234 11.8074 7.69549
O -17.9832 13.7533 9.20387
O -18.5904 12.5608 6.81625
O -16.8459 14.9066 6.84717
O -14.6024 11.0766 9.11796
O -15.2277 10.8961 6.43965
O -13.5401 12.5245 7.06755
O -19.1658 7.42134 10.5464
Si -20.4839 8.34617 10.9015
Si -17.6229 6.93351 10.759
O -17.7301 10.2952 12.6704
Si -19.1927 10.9796 12.3854
Si -16.5446 9.18682 12.4766
O -19.6052 11.3105 13.9706
O -20.1855 9.80873 11.6872
O -18.8189 12.3972 11.5473
O -15.8664 9.17234 13.9412
O -17.0368 7.74732 12.0125
O -15.6714 9.73589 11.2479
O -19.6319 5.20083 6.13252
Si -21.1697 5.76393 6.29327
Si -17.9922 5.20351 6.20175
O -18.7258 8.36327 8.05183
Si -20.3289 8.59245 7.74561
Si -17.2629 7.65713 7.87047
O -20.8973 8.66684 9.31421
O -21.0997 7.30822 6.96972
O -20.1484 10.0788 6.95317
O -16.8924 7.10667 9.3369
O -17.32 6.56095 6.69997
O -16.2343 8.68215 7.1906
O -20.2684 2.25396 10.7266
Si -21.7821 2.79305 11.059
Si -18.6657 2.31224 10.9563
O -19.6857 5.51786 12.8317
Si -21.2921 5.68545 12.553
Si -18.2564 4.7485 12.6829
O -21.7328 5.83421 14.1584
O -21.9031 4.28418 11.8388
O -21.3645 7.1489 11.7109
O -17.5557 4.88166 14.1218
O -18.4117 3.2372 12.2364
O -17.5654 5.48835 11.4421
O -20.0213 -0.0777751 6.5539
Si -21.6674 0.0302969 6.45968
Si -18.4059 0.204891 6.42441
O -19.9688 3.1097 7.86263
Si -21.6184 2.97117 7.87815
Si -18.3548 2.82687 8.01054
O -22.1901 2.95125 9.445
O -22.0619 1.52376 7.1368
O -21.8834 4.4679 7.11952
O -17.9771 2.71554 9.56814
O -17.9007 1.50686 7.21636
O -17.6337 4.04631 7.25458
O -19.9383 -2.98329 10.9445
Si -21.5562 -2.89251 11.191
Si -18.4081 -2.452 11.0569
O -20.2001 0.277287 12.977
Si -21.7933 0.00649616 12.6996
Si -18.5985 0.0108987 12.8439
O -22.2102 -0.0222338 14.3187
O -22.0547 -1.47597 11.9489
O -22.2844 1.40383 11.8859
O -17.9828 0.265565 14.3076
O -18.1818 -1.40341 12.2559
O -18.139 0.976834 11.6544
O -19.2504 -5.39408 6.7599
Si -20.8697 -5.71315 6.59563
Si -17.6687 -4.98485 6.52841
O -19.7956 -2.55013 7.80989
Si -21.4215 -2.82534 7.9886
Si -18.1697 -2.36378 8.02533
O -21.9546 -2.89253 9.56829
O -21.596 -4.36152 7.30457
O -22.0332 -1.43177 7.24
O -17.7975 -2.20294 9.5904
O -17.4115 -3.60233 7.32132
O -17.7484 -1.05258 7.18846
O -18.5628 -8.04281 11.0612
Si -20.1374 -8.39919 11.3264
Si -17.2542 -7.09516 11.2274
O -19.6436 -4.84886 13.1344
Si -21.0586 -5.62148 12.8358
Si -18.0377 -4.73682 12.9663
O -21.4136 -5.81862 14.4575
O -20.9476 -7.11423 12.0585
O -21.807 -4.35022 12.0085
O -17.317 -4.8862 14.3924
O -17.6242 -5.632 11.7007
O -17.6571 -3.473 12.0508
O -17.2301 -10.5332 6.34788
Si -18.747 -11.0758 6.66596
Si -15.8492 -9.70302 6.60802
O -18.5569 -7.63973 8.30102
Si -19.9948 -8.42622 8.14758
Si -16.9397 -7.36327 8.25026
O -20.5446 -8.59269 9.71649
O -19.7078 -9.93817 7.45657
O -20.8893 -7.24204 7.33005
O -16.5526 -7.06082 9.78342
O -16.0276 -8.56327 7.71962
O -16.7758 -6.10108 7.26812
O -16.3241 -12.1245 11.0072
Si -17.3944 -13.3177 11.364
Si -14.9868 -11.2409 11.2856
O -17.6006 -9.98194 13.2917
Si -18.9209 -10.9186 12.9392
Si -16.1902 -9.15645 13.1061
O -19.2976 -11.2513 14.5344
O -18.537 -12.3515 12.1431
O -19.9729 -9.8514 12.1684
O -15.5121 -9.14748 14.5671
O -15.3395 -9.81478 11.9137
O -16.4324 -7.72294 12.4461
O -14.2909 -14.4363 6.3245
Si -15.3629 -15.6448 6.60866
Si -12.9107 -13.5811 6.52638
O -15.7811 -12.721 8.53403
Si -17.2013 -13.5024 8.2058
Si -14.4569 -11.761 8.36403
O -17.7168 -13.7356 9.7786
O -16.6228 -14.8976 7.44864
O -18.3349 -12.531 7.42021
O -14.2236 -11.2058 9.86378
O -13.2232 -12.5612 7.72639
O -14.7131 -10.641 7.23826
O -12.7875 -15.9421 10.9081
Si -13.4581 -17.4106 11.2411
Si -11.7049 -14.7374 11.1191
O -14.2584 -14.5064 13.1791
Si -15.5101 -15.5287 12.8804
Si -13.3797 -13.1332 13.02
O -15.8169 -15.9533 14.4668
O -14.8291 -16.815 12.0287
O -16.7622 -14.6463 12.1816
O -12.7241 -12.9509 14.4851
O -12.3956 -13.456 11.7918
O -14.2153 -11.8646 12.546
O -10.1348 -17.6718 6.16435
Si -10.8404 -19.127 6.45363
Si -9.02819 -16.4761 6.34603
O -11.9288 -16.599 8.43384
Si -13.1865 -17.6088 8.09218
Si -11.0235 -15.2548 8.22995
O -13.6452 -17.9303 9.66544
O -12.2576 -18.7845 7.3055
O -14.5049 -16.9249 7.29336
O -11.0071 -14.54 9.67727
O -9.6048 -15.6071 7.56917
O -11.6437 -14.4257 7.00003
O -8.28321 -18.6944 10.7453
Si -8.54187 -20.2867 11.0838
Si -7.56693 -17.241 10.9542
O -10.1073 -17.6936 13.016
Si -11.0242 -19.0261 12.7275
Si -9.62515 -16.137 12.8412
O -11.1946 -19.5344 14.309
O -10.025 -20.0772 11.8664
O -12.4779 -18.513 12.0519
O -9.03603 -15.8009 14.3107
O -8.58473 -16.193 11.6171
O -10.7628 -15.1279 12.363
O -5.26201 -19.6581 6.00068
Si -5.55264 -21.2485 6.29436
Si -4.51731 -18.2087 6.1802
O -7.27849 -19.1058 8.27591
Si -8.21497 -20.4196 7.93695
Si -6.76754 -17.5686 8.06443
O -8.57713 -20.8449 9.51058
O -7.00456 -21.3021 7.15229
O -9.66383 -20.1255 7.12934
O -6.94998 -16.8686 9.5087
O -5.30516 -17.5283 7.40549
O -7.58121 -16.9477 6.82322
O -3.20359 -20.1454 10.5856
Si -3.03624 -21.7494 10.9286
Si -2.90107 -18.5527 10.7904
O -5.23875 -19.6628 12.8534
Si -5.76542 -21.1931 12.5694
Si -5.1847 -18.0343 12.674
O -5.78973 -21.732 14.1495
O -4.52348 -21.9401 11.7072
O -7.30521 -21.0865 11.8985
O -4.70703 -17.5571 14.1458
O -4.1625 -17.8137 11.4524
O -6.5481 -17.3596 12.1939
O -0.0367513 -20.282 5.84129
Si 0.103503 -21.8918 6.14641
Si 0.294448 -18.6848 6.0106
O -2.1292 -20.2757 8.11345
Si -2.68317 -21.7928 7.78255
Si -2.04549 -18.6584 7.89765
O -2.92153 -22.2975 9.35578
O -1.28255 -22.3262 7.00239
O -4.15329 -21.8973 6.96892
O -2.40746 -18.0316 9.34249
O -0.646958 -18.2329 7.23419
O -2.99658 -18.276 6.65732
O 2.25036 -20.137 10.4652
Si 2.67595 -21.6965 10.8174
Si 1.98385 -18.5253 10.6543
O -0.0392171 -20.2803 12.7212
Si -0.124895 -21.8914 12.423
Si -0.389883 -18.6968 12.5045
O 0.00115632 -22.4215 14.0015
O 1.27452 -22.2622 11.5627
O -1.63472 -22.1973 11.7458
O -0.0542034 -18.1066 13.9749
O 0.539385 -18.2236 11.2814
O -1.88088 -18.3923 12.0243
O 5.54798 -19.444 5.7469
Si 5.77809 -21.0443 6.09924
Si 5.14502 -17.8612 5.9373
O 3.0714 -20.0515 8.02083
Si 2.99333 -21.654 7.66677
Si 2.78303 -18.4728 7.73747
O 2.90099 -22.2033 9.24108
O 4.4991 -21.7735 6.91554
O 1.61897 -22.1501 6.83203
O 2.26369 -17.9323 9.17301
O 4.06721 -17.7338 7.12716
O 1.77884 -18.3502 6.48936
O 7.7003 -18.6501 10.5674
Si 8.20855 -20.1854 10.8654
Si 6.759 -17.3174 10.7333
O 4.75797 -19.6919 12.7374
Si 5.46866 -21.1304 12.3847
Si 4.39149 -18.1291 12.4556
O 5.7761 -21.5971 13.9582
O 6.9242 -21.0319 11.5473
O 4.13888 -21.8485 11.6358
O 4.6472 -17.4288 13.8934
O 5.26478 -17.6063 11.2124
O 2.91965 -17.9701 11.8418
O 10.5399 -17.2578 5.87075
Si 11.0263 -18.796 6.21153
Si 9.63004 -15.9162 6.07829
O 7.69829 -18.6516 8.00594
Si 8.41902 -20.0949 7.70663
Si 7.38585 -17.0601 7.7885
O 8.51678 -20.6295 9.28546
O 9.92366 -19.7698 7.02815
O 7.28746 -20.9981 6.84697
O 6.84252 -16.6528 9.25908
O 8.62846 -16.1801 7.30971
O 6.34536 -17.0025 6.56448
O 12.2381 -15.9844 10.7265
Si 13.1271 -17.3365 11.0133
Si 10.9869 -14.94 10.9043
O 9.61131 -17.7969 12.8294
Si 10.7163 -18.9755 12.5023
Si 8.8938 -16.344 12.6161
O 11.1395 -19.3427 14.0743
O 12.1025 -18.4896 11.6833
O 9.6491 -20.0284 11.7257
O 8.97034 -15.6326 14.0657
O 9.61485 -15.5989 11.3851
O 7.44245 -16.5173 11.9506
O 14.627 -13.9116 6.02995
Si 15.4938 -15.2729 6.36593
Si 13.4033 -12.8494 6.24223
O 12.2211 -15.9975 8.13869
Si 13.3053 -17.1992 7.85392
Si 11.5235 -14.525 7.95622
O 13.5396 -17.6846 9.43374
O 14.6774 -16.4954 7.18295
O 12.4649 -18.3784 6.99128
O 10.8992 -14.2739 9.43002
O 12.5025 -13.3599 7.47437
O 10.4939 -14.7347 6.73815
O 15.9448 -12.2499 10.8827
Si 17.1519 -13.3279 11.1692
Si 14.4699 -11.5568 11.0636
O 13.8738 -14.6665 12.99
Si 15.2394 -15.5276 12.6569
Si 12.8058 -13.4476 12.7783
O 15.7426 -15.7738 14.2291
O 16.4565 -14.7045 11.839
O 14.4771 -16.8175 11.8783
O 12.6949 -12.7425 14.2288
O 13.3092 -12.5403 11.5478
O 11.4462 -13.9912 12.1194
O 17.729 -9.63521 6.18798
Si 18.9155 -10.7297 6.52196
Si 16.2748 -8.91998 6.39982
O 15.9351 -12.2625 8.29646