3600
 Atoms. Timestep: 8446
O -43.34 -59.9591 2.54476
Si -44.504 -61.123 2.54479
Si -42.5727 -58.5069 2.54483
O -46.2479 -57.7604 2.54419
Si -47.0511 -59.1972 2.54457
Si -45.0593 -56.627 2.54455
O -47.9777 -59.1065 3.90882
O -46.0312 -60.4955 2.54477
O -47.9775 -59.1067 1.18018
O -45.2842 -55.7693 3.90896
O -43.5534 -57.2196 2.54454
O -45.2842 -55.7692 1.1802
O -39.4824 -62.5496 -0.184089
Si -40.5714 -63.7839 -0.18408
Si -38.8081 -61.052 -0.18413
O -42.5231 -60.5371 -0.183774
Si -43.2342 -62.0216 -0.183931
Si -41.4077 -59.3315 -0.183886
O -44.1644 -61.9896 1.18043
O -42.1348 -63.2533 -0.183986
O -44.1644 -61.9896 3.90917
O -41.6859 -58.4897 1.1806
O -39.8676 -59.8287 -0.18408
O -41.6862 -58.4895 3.90924
O -18.2005 -71.6362 2.54496
Si -18.8565 -73.1459 2.54499
Si -18.0198 -70.0037 2.54498
O -21.7127 -70.6567 2.5449
Si -21.9322 -72.2881 2.54498
Si -21.0227 -69.1663 2.54497
O -22.827 -72.5439 3.90936
O -20.5073 -73.1219 2.54496
O -22.8271 -72.5439 1.18063
O -21.5469 -68.4508 3.90931
O -19.4043 -69.1657 2.5451
O -21.5468 -68.4508 1.18056
O -13.6621 -72.632 -0.183645
Si -14.2224 -74.1798 -0.183717
Si -13.5836 -70.9915 -0.183712
O -17.2285 -71.8746 -0.183697
Si -17.3459 -73.5165 -0.183735
Si -16.6332 -70.3439 -0.183746
O -18.223 -73.8277 1.18062
O -15.8715 -74.2594 -0.183737
O -18.223 -73.8277 3.90937
O -17.2012 -69.6626 1.18058
O -15.018 -70.2418 -0.183598
O -17.201 -69.6627 3.90928
O 9.47136 -73.293 2.54462
Si 9.41442 -74.9381 2.54467
Si 9.0416 -71.7078 2.54463
O 5.84528 -73.6687 2.54468
Si 6.23834 -75.2672 2.54472
Si 5.94063 -72.0291 2.54471
O 5.49925 -75.833 3.90907
O 7.86972 -75.5209 2.54474
O 5.4993 -75.833 1.18036
O 5.19051 -71.5556 3.90905
O 7.44624 -71.4353 2.54475
O 5.19065 -71.5556 1.18031
O 31.6816 -66.7967 -0.183966
Si 14.1056 -74.2035 -0.183866
Si 13.5316 -71.0031 -0.183846
O 10.4633 -73.1591 -0.184091
Si 10.9561 -74.7297 -0.184051
Si 10.4565 -71.5167 -0.184096
O 10.2538 -75.3405 1.18033
O 12.6001 -74.8811 -0.183977
O 10.2538 -75.3405 3.90897
O 9.67857 -71.0907 1.18023
O 11.9223 -70.8307 -0.184114
O 9.67865 -71.0906 3.909
O 35.8168 -64.6792 2.5444
Si 36.3689 -66.23 2.54458
Si 34.8341 -63.3632 2.54456
O 32.5832 -66.3627 2.54486
Si 33.5366 -67.7045 2.54472
Si 32.0691 -64.8028 2.54478
O 33.0575 -68.5025 3.90907
O 35.1469 -67.3402 2.54466
O 33.0574 -68.5025 1.18038
O 31.1981 -64.6379 3.90932
O 33.2505 -63.6968 2.54439
O 31.1975 -64.6382 1.18056
O 54.0716 -50.4578 -0.184369
Si 40.4602 -63.82 -0.184217
Si 52.7297 -49.511 -0.184483
O 36.6896 -64.1895 -0.184009
Si 37.7256 -65.4687 -0.184142
Si 36.0789 -62.6649 -0.184147
O 37.2974 -66.2952 1.18021
O 39.3099 -65.0044 -0.184173
O 37.2974 -66.2951 3.90893
O 35.199 -62.5549 1.18024
O 37.189 -61.4872 -0.184123
O 35.1989 -62.555 3.90896
O 57.1347 -46.9639 2.54427
Si 58.2193 -48.2021 2.54424
Si 55.736 -46.103 2.54427
O 54.7496 -49.7216 2.54423
Si 56.1306 -50.6174 2.54428
Si 53.6968 -48.4611 2.54423
O 55.9794 -51.536 3.9086
O 57.4929 -49.6848 2.5443
O 55.9795 -51.536 1.17994
O 52.826 -48.6295 3.90852
O 54.3871 -46.9973 2.54444
O 52.8263 -48.6292 1.17971
O 68.8704 -27.0213 -0.184499
Si 61.1349 -44.4544 -0.184744
Si 67.2742 -26.6347 -0.184357
O 57.7655 -46.187 -0.184425
Si 59.1999 -46.9945 -0.184492
Si 56.6358 -44.9948 -0.184466
O 59.1065 -47.9205 1.17985
O 60.5018 -45.9792 -0.184459
O 59.1065 -47.9205 3.90858
O 55.7772 -45.2171 1.1799
O 57.234 -43.491 -0.184581
O 55.7773 -45.2171 3.90862
O 70.434 -22.6461 2.54508
Si 71.8981 -23.3984 2.5441
Si 68.8167 -22.3602 2.54399
O 69.2302 -26.0877 2.54476
Si 70.8439 -26.4124 2.54417
Si 67.7875 -25.3028 2.54439
O 71.0413 -27.322 3.90852
O 71.7679 -25.0442 2.54406
O 71.0412 -27.322 1.1798
O 67.0398 -25.779 3.90899
O 67.8911 -23.6878 2.54376
O 67.0396 -25.7798 1.18021
O 74.0137 0.216576 -0.185109
Si 73.2273 -18.8403 -0.184766
Si 70.0869 -17.9969 -0.184789
O 70.7341 -21.6917 -0.185901
Si 72.365 -21.9147 -0.18472
Si 69.2451 -20.9986 -0.18483
O 72.6191 -22.81 1.17965
O 73.2009 -20.491 -0.184689
O 72.6194 -22.8102 3.90847
O 68.529 -21.5213 1.17968
O 69.2469 -19.3802 -0.184868
O 68.5286 -21.5213 3.90829
O 73.8596 4.86102 2.5439
Si 75.4978 4.69923 2.54388
Si 72.2504 4.53268 2.54387
O 74.0045 1.21796 2.54351
Si 75.6247 1.50863 2.54367
Si 72.3743 1.41751 2.54365
O 76.1428 0.73513 3.90792
O 75.9813 3.12064 2.54377
O 76.1428 0.735287 1.17933
O 71.8544 0.69882 3.90798
O 71.8773 2.95779 2.54384
O 71.8544 0.699176 1.17916
O 73.4185 9.48658 -0.185479
Si 75.0636 9.42764 -0.185186
Si 71.8329 9.05855 -0.185233
O 73.7891 5.85944 -0.18477
Si 75.3879 6.25101 -0.184848
Si 72.1496 5.95704 -0.184862
O 75.9528 5.51135 1.17959
O 75.644 7.88203 -0.185072
O 75.9528 5.51113 3.9083
O 71.675 5.20771 1.17951
O 71.5582 7.46357 -0.185084
O 71.675 5.20756 3.90831
O 72.6897 14.0758 2.54399
Si 74.3352 14.1201 2.54356
Si 71.1341 13.5492 2.54371
O 73.2862 10.4788 2.54365
Si 74.8574 10.9698 2.54354
Si 71.6438 10.4737 2.54351
O 75.4671 10.2666 3.90798
O 75.011 12.6137 2.54348
O 75.4671 10.2666 1.1791
O 71.2166 9.69629 3.90779
O 70.9595 11.9402 2.54352
O 71.2167 9.69639 1.17916
O 71.6712 18.6096 -0.185715
Si 73.3107 18.7571 -0.185683
Si 70.1518 17.986 -0.185809
O 72.4948 15.0576 -0.184786
Si 74.0321 15.6463 -0.185184
Si 70.856 14.9492 -0.18503
O 74.685 14.9829 1.17927
O 74.0809 17.2967 -0.185466
O 74.685 14.9827 3.90793
O 70.4788 14.1469 1.17944
O 70.0798 16.3693 -0.185426
O 70.4788 14.1465 3.90817
O 70.3686 23.0699 2.54283
Si 71.9956 23.3203 2.54299
Si 68.8916 22.3517 2.54297
O 71.4143 19.5769 2.54277
Si 72.9115 20.2611 2.54302
Si 69.7856 19.3654 2.5429
O 73.6051 19.6401 3.90733
O 72.8562 21.9112 2.54304
O 73.6051 19.6402 1.17867
O 69.46 18.5405 3.90722
O 68.9215 20.7337 2.54299
O 69.4599 18.5408 1.17843
O 68.7893 27.4392 -0.186096
Si 70.3971 27.792 -0.186021
Si 67.3604 26.6295 -0.186069
O 70.0519 24.0189 -0.185649
Si 71.5029 24.7962 -0.18574
Si 68.4397 23.7052 -0.185758
O 72.2341 24.2201 1.17864
O 71.3444 26.4397 -0.185862
O 72.2341 24.22 3.90736
O 68.1662 22.8618 1.17864
O 67.4915 25.0166 -0.185998
O 68.1663 22.8617 3.90738
O 66.9364 31.7003 2.54272
Si 68.5187 32.1538 2.54273
Si 65.5617 30.8016 2.54278
O 68.4135 28.3663 2.54254
Si 69.8124 29.234 2.54269
Si 66.8244 27.9517 2.54265
O 70.5785 28.7051 3.90706
O 69.5498 30.8642 2.54274
O 70.5784 28.7052 1.17827
O 66.6045 27.0928 3.90701
O 65.795 29.2003 2.54257
O 66.6045 27.0928 1.17831
O 64.8159 35.8341 -0.186328
Si 66.3664 36.387 -0.186099
Si 63.5006 34.8504 -0.18624
O 66.5019 32.6015 -0.185992
Si 67.8433 33.5556 -0.186002
Si 64.9423 32.0868 -0.185946
O 68.6415 33.0766 1.17834
O 67.4775 35.1657 -0.186093
O 68.6416 33.0766 3.90714
O 64.7777 31.2158 1.17853
O 63.8353 33.2672 -0.186194
O 64.7778 31.2155 3.9072
O 62.4406 39.8276 2.54417
Si 63.9531 40.477 2.54302
Si 61.1902 38.7627 2.54315
O 64.3256 36.7062 2.54249
Si 65.6039 37.7434 2.54263
Si 62.8015 36.0943 2.5425
O 66.4307 37.3157 3.90702
O 65.1382 39.3274 2.5426
O 66.4307 37.3156 1.17828
O 62.6921 35.2143 3.90681
O 61.6231 37.2034 2.54266
O 62.6921 35.2144 1.17809
O 59.8201 43.6639 -0.185768
Si 61.2884 44.408 -0.186178
Si 58.6395 42.5222 -0.186269
O 61.8974 40.6676 -0.185893
Si 63.1076 41.7834 -0.185761
Si 60.4151 39.9604 -0.185637
O 63.9592 41.4082 1.17886
O 62.5435 43.3352 -0.186156
O 63.9596 41.4079 3.9074
O 60.3607 39.0756 1.17879
O 59.1694 40.9932 -0.185996
O 60.3608 39.075 3.90773
O 56.9587 47.3246 2.54284
Si 58.377 48.1603 2.54284
Si 55.8531 46.1102 2.54275
O 59.2244 44.4673 2.54134
Si 60.3612 45.6579 2.54249
Si 57.7898 43.6679 2.54239
O 61.2352 45.3375 3.90693
O 59.6984 47.1702 2.54256
O 61.2354 45.3376 1.1781
O 57.7921 42.7813 3.90663
O 56.4804 44.6185 2.54279
O 57.7916 42.7814 1.178
O 53.8699 50.7951 -0.186222
Si 55.2322 51.7193 -0.186215
Si 52.8433 49.5131 -0.186298
O 56.3123 48.0882 -0.185653
Si 57.3716 49.3483 -0.185877
Si 54.9315 47.199 -0.18597
O 58.2644 49.0846 1.17858
O 56.614 50.8154 -0.186205
O 58.2646 49.0843 3.90736
O 54.9905 46.3144 1.17837
O 53.5641 48.0643 -0.185915
O 54.9904 46.3145 3.90708
O 50.567 54.0636 2.54243
Si 51.8682 55.0718 2.54243
Si 49.6237 52.7191 2.54247
O 53.1762 51.5164 2.54237
Si 54.1534 52.841 2.5425
Si 51.8544 50.5417 2.54242
O 55.0612 52.6344 3.90686
O 53.3044 54.2572 2.54246
O 55.0613 52.6344 1.17818
O 51.9695 49.6624 3.90669
O 50.4349 51.3189 2.54264
O 51.9692 49.6627 1.17793
O 47.0644 57.1171 -0.18627
Si 48.2995 58.2053 -0.186307
Si 46.2078 55.7158 -0.18629
O 49.8291 54.7395 -0.186357
Si 50.7208 56.1231 -0.1863
Si 48.5714 53.6833 -0.18627
O 51.6398 55.9743 1.17803
O 49.7842 57.4829 -0.186269
O 51.6398 55.9743 3.9068
O 48.7419 52.8131 1.17812
O 47.1058 54.3695 -0.186385
O 48.7419 52.8131 3.90679
O 27.0805 68.7832 2.54191
Si 27.919 70.1997 2.54205
Si 26.6983 67.1859 2.54205
O 30.4438 67.3755 2.54225
Si 30.8644 68.9669 2.54219
Si 29.574 65.9823 2.54221
O 31.7841 69.1097 3.90654
O 29.554 69.9711 2.5421
O 31.7842 69.1097 1.17786
O 30.0052 65.2074 3.90661
O 27.9681 66.1825 2.54222
O 30.0053 65.2074 1.17782
O 22.701 70.3353 -0.186883
Si 23.4494 71.8014 -0.186833
Si 22.4194 68.7172 -0.186869
O 26.1458 69.1405 -0.186548
Si 26.4661 70.7551 -0.186676
Si 25.3648 67.6956 -0.186669
O 27.3751 70.955 1.17769
O 25.0956 71.6755 -0.18679
O 27.3751 70.9549 3.90644
O 25.8437 66.949 1.17764
O 23.7494 67.7952 -0.186521
O 25.8435 66.9492 3.90635
O -0.169722 73.8724 2.54138
Si 0.0926543 75.4975 2.54139
Si 0.0592407 72.2461 2.54139
O 3.47598 73.7926 2.54126
Si 3.28506 75.4276 2.54136
Si 3.17618 72.1778 2.54134
O 4.08899 75.8968 3.90569
O 1.69804 75.8827 2.54141
O 4.0889 75.8968 1.17697
O 3.8614 71.6143 3.90557
O 1.60819 71.7769 2.54166
O 3.86086 71.6143 1.17684
O -23.0177 70.2047 -0.187162
Si -4.65334 75.3535 -0.187261
Si -4.48347 72.1062 -0.187243
O -1.17064 73.863 -0.1874
Si -1.46292 75.483 -0.187342
Si -1.36851 72.2326 -0.187349
O -0.689875 76.0014 1.17701
O -3.07519 75.8384 -0.187319
O -0.689903 76.0014 3.90574
O -0.649549 71.713 1.17695
O -2.90833 71.7343 -0.187275
O -0.649782 71.713 3.90569
O -27.3868 68.6231 2.54089
Si -27.7399 70.2309 2.5412
Si -26.5766 67.1944 2.54107
O -23.9668 69.8874 2.54141
Si -24.7448 71.338 2.54141
Si -23.6526 68.2753 2.54147
O -24.1694 72.0695 3.90585
O -26.3881 71.1787 2.54131
O -24.1693 72.0695 1.17707
O -22.8092 68.0023 3.90606
O -24.9637 67.3266 2.54079
O -22.8083 68.0026 1.17735
O -47.281 56.8056 -0.18729
Si -32.1012 68.3531 -0.187254
Si -30.7496 65.3956 -0.187056
O -28.3142 68.2469 -0.187498
Si -29.1815 69.6459 -0.187512
Si -27.8992 66.6578 -0.187642
O -28.6529 70.4121 1.17683
O -30.8116 69.3839 -0.187405
O -28.653 70.412 3.90553
O -27.0401 66.4383 1.17678
O -29.1481 65.6286 -0.187821
O -27.0399 66.4384 3.90553
O -50.7593 53.7246 2.54141
Si -51.6796 55.0895 2.54146
Si -49.4798 52.695 2.54148
O -48.0461 56.1608 2.54142
Si -49.3037 57.2228 2.54141
Si -47.1603 54.7778 2.54145
O -49.0384 58.115 3.90575
O -50.7725 56.4689 2.54147
O -49.0384 58.115 1.17704
O -46.2752 54.8352 3.90568
O -48.0292 53.4125 2.54205
O -46.2757 54.8348 1.17689
O -64.9037 35.4132 -0.187191
Si -55.0425 51.7376 -0.187201
Si -63.3686 34.8293 -0.187169
O -51.4826 53.0331 -0.187195
Si -52.8041 54.0146 -0.187261
Si -50.5115 51.7086 -0.187241
O -52.595 54.9216 1.17706
O -54.2232 53.1709 -0.187202
O -52.5951 54.9216 3.90584
O -49.6316 51.8216 1.1769
O -51.2935 50.2918 -0.186553
O -49.6322 51.821 3.90562
O -67.0035 31.2684 2.54212
Si -68.3619 32.1981 2.54197
Si -65.4347 30.7823 2.54215
O -65.3778 34.532 2.54168
Si -66.9382 35.0562 2.54178
Si -64.0448 33.5726 2.54156
O -67.02 35.9834 3.90618
O -68.0264 33.8146 2.54175
O -67.0199 35.9835 1.17743
O -63.243 33.9517 3.90583
O -64.3501 31.9833 2.54169
O -63.2432 33.9514 1.17711
O -73.4105 9.03357 -0.186289
Si -70.2518 27.8423 -0.187012
Si -71.7682 9.05513 -0.186339
O -67.4209 30.3593 -0.185917
Si -69.0111 30.7845 -0.186733
Si -66.0303 29.4854 -0.186556
O -69.1512 31.7046 1.17767
O -70.0188 29.4767 -0.187013
O -69.151 31.7048 3.90645
O -65.2543 29.9137 1.17804
O -66.2348 27.88 -0.187321
O -65.254 29.9145 3.90672
O -73.8381 4.40643 2.5427
Si -75.4431 4.77208 2.54294
Si -72.2005 4.5309 2.54289
O -73.5264 8.03952 2.5421
Si -75.1702 7.95341 2.54255
Si -71.9341 7.63713 2.54238
O -75.5876 8.7854 3.90682
O -75.7254 6.39866 2.54276
O -75.5877 8.78534 1.17822
O -71.3284 8.28466 3.90692
O -71.6335 6.04681 2.54228
O -71.3283 8.285 1.17803
O -73.9796 -0.237436 -0.185869
Si -75.6043 0.0269799 -0.185838
Si -72.3528 -0.011351 -0.185901
O -73.8929 3.40715 -0.18571
Si -75.5282 3.21902 -0.185762
Si -72.2785 3.10526 -0.185804
O -75.9961 4.02345 1.17864
O -75.9866 1.63301 -0.185814
O -75.9961 4.02361 3.90736
O -71.7139 3.78908 1.17866
O -71.8803 1.53659 -0.185912
O -71.7139 3.78957 3.90741
O -73.8308 -4.88166 2.54289
Si -75.4688 -4.7193 2.5429
Si -72.2214 -4.55389 2.54292
O -73.9725 -1.23825 2.5429
Si -75.5928 -1.52855 2.54289
Si -72.3424 -1.43885 2.54284
O -76.1097 -0.754624 3.9073
O -75.9509 -3.14024 2.54297
O -76.1097 -0.754689 1.17845
O -71.8212 -0.721007 3.90706
O -71.8469 -2.97947 2.54331
O -71.8212 -0.721347 1.17844
O -73.3888 -9.50696 -0.186648
Si -75.0338 -9.44777 -0.185648
Si -71.8033 -9.07864 -0.185512
O -73.7605 -5.87976 -0.185588
Si -75.3593 -6.27118 -0.185811
Si -72.121 -5.97758 -0.18579
O -75.9241 -5.53116 1.17851
O -75.6148 -7.90233 -0.185636
O -75.924 -5.53133 3.90721
O -71.6461 -5.2283 1.17836
O -71.5291 -7.48374 -0.185171
O -71.6461 -5.22901 3.90713
O -72.6565 -14.095 2.54319
Si -74.302 -14.1395 2.54335
Si -71.101 -13.568 2.54336
O -73.2555 -10.4985 2.54406
Si -74.8266 -10.9896 2.54316
Si -71.6131 -10.4931 2.54331
O -75.437 -10.2868 3.90747
O -74.979 -12.6336 2.5432
O -75.4367 -10.2868 1.17875
O -71.1863 -9.71546 3.90752
O -70.9275 -11.959 2.54373
O -71.1866 -9.71596 1.17876
O -71.6388 -18.6284 -0.18529
Si -73.2782 -18.7763 -0.185288
Si -70.1195 -18.0046 -0.185341
O -72.4615 -15.0763 -0.185274
Si -73.9986 -15.6654 -0.185356
Si -70.8228 -14.9677 -0.185351
O -74.6517 -15.0022 1.17905
O -74.0479 -17.3157 -0.185363
O -74.6517 -15.0021 3.90773
O -70.4456 -14.1649 1.17882
O -70.0469 -16.3879 -0.184817
O -70.4455 -14.1655 3.90759
O -70.3371 -23.0887 2.54362
Si -71.964 -23.3395 2.54363
Si -68.8602 -22.3702 2.54358
O -71.3826 -19.5955 2.54334
Si -72.8796 -20.2802 2.54345
Si -69.754 -19.3839 2.54338
O -73.573 -19.6593 3.90785
O -72.8245 -21.9304 2.54353
O -73.573 -19.6593 1.17904
O -69.428 -18.5589 3.90751
O -68.89 -20.7522 2.54395
O -69.4278 -18.5597 1.17887
O -68.7551 -27.4573 -0.184687
Si -70.3629 -27.8102 -0.184862
Si -67.3265 -26.647 -0.184847
O -70.02 -24.0374 -0.185153
Si -71.4707 -24.8151 -0.185091
Si -68.4079 -23.7234 -0.18515
O -72.2022 -24.2394 1.17928
O -71.3111 -26.4585 -0.185026
O -72.2022 -24.2393 3.908
O -68.1349 -22.8797 1.17909
O -67.4588 -25.0342 -0.184803
O -68.1347 -22.8801 3.90782
O -66.9021 -31.7175 2.54364
Si -68.4844 -32.1714 2.54384
Si -65.5273 -30.8191 2.54376
O -68.3788 -28.3842 2.54373
Si -69.7777 -29.2518 2.54386
Si -66.7897 -27.9691 2.54387
O -70.5439 -28.7233 3.90825
O -69.5154 -30.8819 2.54381
O -70.544 -28.7232 1.17955
O -66.5704 -27.11 3.90821
O -65.7603 -29.2177 2.54387
O -66.5703 -27.11 1.17951
O -64.7853 -35.8539 -0.18374
Si -66.3358 -36.4065 -0.18474
Si -63.4701 -34.8702 -0.184502
O -66.4687 -32.6193 -0.184928
Si -67.81 -33.5736 -0.184881
Si -64.909 -32.105 -0.184966
O -68.6078 -33.0942 1.17955
O -67.4457 -35.1841 -0.184899
O -68.6078 -33.0942 3.90817
O -64.7437 -31.2338 1.17932
O -63.8033 -33.2866 -0.184983
O -64.7437 -31.2339 3.90816
O -62.4095 -39.8469 2.54379
Si -63.9219 -40.4968 2.54377
Si -61.1594 -38.7818 2.54364
O -64.2956 -36.7263 2.54371
Si -65.5738 -37.7635 2.54394
Si -62.7716 -36.1142 2.54417
O -66.4004 -37.3353 3.9084
O -65.1076 -39.3476 2.54387
O -66.4006 -37.3354 1.17958
O -62.6618 -35.2347 3.90869
O -61.5929 -37.2228 2.54367
O -62.6619 -35.234 1.18007
O -59.7835 -43.6799 -0.184624
Si -61.2515 -44.4245 -0.184737
Si -58.6034 -42.5376 -0.184753
O -61.8649 -40.6861 -0.185246
Si -63.0747 -41.8024 -0.184964
Si -60.3828 -39.9785 -0.185102
O -63.9271 -41.4277 1.17935
O -62.5082 -43.3534 -0.184808
O -63.9271 -41.4279 3.90811
O -60.3295 -39.0935 1.17926
O -59.1356 -41.0095 -0.185051
O -60.3294 -39.0935 3.90797
O -56.9191 -47.3386 2.54422
Si -58.3372 -48.1745 2.54417
Si -55.8139 -46.1238 2.54419
O -59.1864 -44.4826 2.5439
Si -60.3229 -45.6734 2.544
Si -57.7521 -43.6825 2.54397
O -61.1974 -45.3539 3.90832
O -59.6592 -47.1853 2.54413
O -61.1974 -45.3539 1.17965
O -57.7551 -42.7961 3.90847
O -56.442 -44.6324 2.54376
O -57.7553 -42.7958 1.17965
O -53.8303 -50.809 -0.184753
Si -55.1925 -51.7331 -0.184545
Si -52.8037 -49.5269 -0.184572
O -56.2726 -48.102 -0.184576
Si -57.3317 -49.3621 -0.18455
Si -54.8918 -47.2126 -0.184534
O -58.2246 -49.0986 1.17975
O -56.5742 -50.8292 -0.184403
O -58.2246 -49.0987 3.90854
O -54.9509 -46.3282 1.17999
O -53.5244 -48.0781 -0.184796
O -54.9512 -46.3278 3.90865
O -50.5286 -54.0783 2.54532
Si -51.8299 -55.0864 2.54479
Si -49.5852 -52.7339 2.54489
O -53.1368 -51.5305 2.54407
Si -54.1143 -52.8549 2.5442
Si -51.815 -50.5558 2.54417
O -55.022 -52.6481 3.90847
O -53.2658 -54.2714 2.54457
O -55.0218 -52.6484 1.17973
O -51.9297 -49.6766 3.90857
O -50.3958 -51.3334 2.54423
O -51.9298 -49.6765 1.17982
O -47.0268 -57.1323 -0.184073
Si -48.2621 -58.2203 -0.184146
Si -46.1701 -55.7311 -0.18416
O -49.7913 -54.7543 -0.183571
Si -50.683 -56.1379 -0.183929
Si -48.5334 -53.6983 -0.183831
O -51.6019 -55.989 1.18046
O -49.7466 -57.4977 -0.183987
O -51.602 -55.9889 3.90919
O -48.7033 -52.8283 1.18072
O -47.0679 -54.3846 -0.184277
O -48.7038 -52.8278 3.90944
O 43.3771 59.9437 2.54233
Si 44.541 61.1077 2.5424
Si 42.6101 58.4914 2.54241
O 46.2853 57.7452 2.54233
Si 47.0884 59.1822 2.54242
Si 45.0968 56.6117 2.54242
O 48.0149 59.0916 3.90673
O 46.0682 60.4803 2.54246
O 48.0149 59.0916 1.17807
O 45.3217 55.7541 3.90691
O 43.5909 57.2042 2.54211
O 45.322 55.7539 1.17811
O 39.519 62.5335 -0.186346
Si 40.6077 63.7681 -0.186399
Si 38.8451 61.0358 -0.186384
O 42.5602 60.5217 -0.186285
Si 43.271 62.0064 -0.186326
Si 41.4451 59.3159 -0.186314
O 44.2013 61.9743 1.17802
O 42.1712 63.2378 -0.186324
O 44.2013 61.9743 3.90676
O 41.7232 58.4741 1.17821
O 39.9049 59.8128 -0.186702
O 41.7236 58.4739 3.90686
O 35.5063 64.8751 2.54223
Si 36.5152 66.1758 2.54228
Si 34.9275 63.3381 2.5423
O 38.6674 63.0588 2.54236
Si 39.2839 64.5851 2.54232
Si 37.6305 61.7852 2.54234
O 40.2144 64.6116 3.90663
O 38.109 65.7451 2.54234
O 40.2143 64.6117 1.17798
O 37.9611 60.9626 3.90684
O 36.062 62.1841 2.54207
O 37.9615 60.9624 1.17805
O 31.3543 66.9608 -0.186553
Si 32.2799 68.322 -0.186531
Si 30.8731 65.3905 -0.186521
O 34.6234 65.346 -0.186277
Si 35.1427 66.908 -0.186445
Si 33.6681 64.0099 -0.186414
O 36.0696 66.9929 1.17788
O 33.8975 67.9919 -0.186488
O 36.0696 66.9929 3.90667
O 34.0498 63.2097 1.17805
O 32.0778 64.3099 -0.186574
O 34.0501 63.2096 3.9067
O -35.471 -64.8935 2.54462
Si -36.4803 -66.1938 2.54463
Si -34.8917 -63.3567 2.54462
O -38.6312 -63.0753 2.54465
Si -39.248 -64.6014 2.54464
Si -37.5937 -61.8021 2.5446
O -40.1784 -64.6276 3.90897
O -38.0738 -65.762 2.54468
O -40.1783 -64.6276 1.18028
O -37.9243 -60.9791 3.90894
O -36.0256 -62.202 2.54479
O -37.9241 -60.9792 1.18017
O -31.3203 -66.981 -0.18387
Si -32.2462 -68.3421 -0.183968
Si -30.8382 -65.411 -0.183946
O -34.5881 -65.3651 -0.184033
Si -35.1084 -66.9268 -0.18409
Si -33.6326 -64.0292 -0.184096
O -36.0353 -67.0112 1.18024
O -33.8637 -68.0114 -0.184038
O -36.0352 -67.0112 3.90899
O -34.0142 -63.2286 1.18019
O -32.0424 -64.3298 -0.183831
O -34.014 -63.2287 3.90891
O -27.0464 -68.8046 2.54485
Si -27.8857 -70.2206 2.54487
Si -26.6638 -67.2074 2.54487
O -30.4099 -67.3961 2.54471
Si -30.8309 -68.9874 2.54476
Si -29.5395 -66.0033 2.54478
O -31.7507 -69.1299 3.90912
O -29.5207 -69.9917 2.54479
O -31.7507 -69.1299 1.18042
O -29.9705 -65.2282 3.90912
O -27.9335 -66.2039 2.54497
O -29.9703 -65.2283 1.18033
O -22.6679 -70.3579 -0.183706
Si -23.4167 -71.8239 -0.183751
Si -22.3853 -68.74 -0.183756
O -26.1117 -69.162 -0.183826
Si -26.4329 -70.7764 -0.183845
Si -25.3303 -67.7173 -0.183849
O -27.342 -70.976 1.18048
O -25.0628 -71.6974 -0.183835
O -27.3421 -70.976 3.90931
O -25.8091 -66.9707 1.18049
O -23.715 -67.8173 -0.18369
O -25.8089 -66.9708 3.90917
O 18.2331 71.6102 2.54181
Si 18.8885 73.1202 2.54181
Si 18.0529 69.9777 2.54179
O 21.7456 70.6334 2.54189
Si 21.9647 72.2648 2.54189
Si 21.0565 69.1425 2.54186
O 22.8594 72.5211 3.90624
O 20.5393 73.0976 2.5418
O 22.8594 72.5211 1.17756
O 21.5813 68.4274 3.90613
O 19.4381 69.1407 2.54214
O 21.5809 68.4275 1.17736
O 13.6944 72.6049 -0.186231
Si 14.2545 74.1528 -0.187138
Si 13.6163 70.9644 -0.187099
O 17.2611 71.8481 -0.186896
Si 17.3779 73.49 -0.186924
Si 16.666 70.3172 -0.186939
O 18.2547 73.8017 1.17746
O 15.9035 74.2326 -0.187092
O 18.2549 73.8017 3.90623
O 17.2345 69.6362 1.17734
O 15.0508 70.2149 -0.186698
O 17.2341 69.6363 3.90603
O 9.10277 73.3162 2.5415
Si 9.56532 74.896 2.54155
Si 9.12694 71.674 2.54151
O 12.7096 72.7822 2.54053
Si 12.7238 74.4283 2.54151
Si 12.211 71.2173 2.54154
O 13.5798 74.7935 3.9059
O 11.2062 75.078 2.54158
O 13.5797 74.7938 1.17715
O 12.8207 70.5729 3.9058
O 10.6052 71.0151 2.54195
O 12.8201 70.5727 1.1771
O 4.47552 73.7394 -0.187307
Si 4.83853 75.345 -0.187362
Si 4.60205 72.1019 -0.187374
O 8.10845 73.4319 -0.187208
Si 8.02022 75.0756 -0.187187
Si 7.70858 71.8389 -0.187217
O 8.85179 75.4936 1.1772
O 6.46484 75.6293 -0.187264
O 8.85184 75.4936 3.90591
O 8.35726 71.2337 1.177
O 6.1186 71.5367 -0.186891
O 8.35674 71.2337 3.90576
O -9.0702 -73.3424 2.54495
Si -9.53275 -74.9221 2.54497
Si -9.09435 -71.7001 2.54497
O -12.677 -72.8091 2.54496
Si -12.6915 -74.4551 2.545
Si -12.1784 -71.2442 2.54501
O -13.5475 -74.8206 3.90937
O -11.1736 -75.1045 2.54499
O -13.5475 -74.8206 1.18066
O -12.7879 -70.5998 3.90935
O -10.5727 -71.0415 2.5451
O -12.7878 -70.5998 1.1806
O -4.44291 -73.7657 -0.183742
Si -4.80582 -75.3713 -0.183792
Si -4.56949 -72.1282 -0.183779
O -8.07583 -73.458 -0.183717
Si -7.98753 -75.1017 -0.183761
Si -7.67602 -71.865 -0.183758
O -8.81914 -75.5197 1.18061
O -6.43217 -75.6554 -0.183788
O -8.81914 -75.5197 3.90933
O -8.32454 -71.2598 1.18054
O -6.08601 -71.5628 -0.183688
O -8.3244 -71.2598 3.90932
O 0.202287 -73.8992 2.54478
Si -0.0597457 -75.5243 2.54484
Si -0.0266207 -72.2728 2.54484
O -3.44322 -73.8192 2.54489
Si -3.25223 -75.4542 2.54493
Si -3.14358 -72.2044 2.54494
O -4.0562 -75.9232 3.90933
O -1.66522 -75.9094 2.54488
O -4.05623 -75.9232 1.18055
O -3.82857 -71.6407 3.90926
O -1.57554 -71.8035 2.54497
O -3.82849 -71.6407 1.18059
O 4.84654 -73.7409 -0.183979
Si 4.68661 -75.3792 -0.183997
Si 4.51638 -72.132 -0.184006
O 1.2032 -73.8897 -0.183834
Si 1.49603 -75.5096 -0.183894
Si 1.40127 -72.2593 -0.18389
O 0.722993 -76.0281 1.18048
O 3.10848 -75.8644 -0.18393
O 0.723 -76.0281 3.90919
O 0.682274 -71.7398 1.18044
O 2.94105 -71.7608 -0.183847
O 0.682393 -71.7398 3.90917
O -4.81319 73.7151 -0.187105
O -9.43853 73.2686 2.54099
Si -9.38121 74.9137 2.54127
Si -9.00848 71.6835 2.54115
O -5.81152 73.6435 2.54134
Si -6.20498 75.2419 2.54145
Si -5.90748 72.0039 2.54147
O -5.46591 75.8075 3.90588
O -7.83629 75.4959 2.54137
O -5.46584 75.8076 1.17708
O -5.15784 71.5301 3.90586
O -7.41324 71.4108 2.54127
O -5.15769 71.53 1.17717
O -14.0261 72.533 -0.186703
Si -14.0722 74.1784 -0.187374
Si -13.4977 70.9779 -0.187169
O -10.4303 73.1347 -0.187458
Si -10.9229 74.7054 -0.187448
Si -10.4231 71.4923 -0.187575
O -10.2205 75.3162 1.17692
O -12.5669 74.8566 -0.187433
O -10.2205 75.3161 3.90561
O -9.64521 71.0663 1.17675
O -11.8886 70.8057 -0.187657
O -9.64525 71.0663 3.90553
O -18.5588 71.5099 2.54109
Si -18.7077 73.1492 2.54114
Si -17.9336 69.9911 2.54097
O -15.0074 72.3369 2.54142
Si -15.5978 73.8735 2.54133
Si -14.8975 70.6982 2.54152
O -14.9352 74.5272 3.90573
O -17.2481 73.9207 2.54126
O -14.9352 74.5273 1.17696
O -14.0948 70.3219 3.90609
O -16.3168 69.9207 2.54089
O -14.094 70.3219 1.17739
Si -23.2695 71.8314 -0.187309
Si -22.2989 68.728 -0.187256
O -19.5258 71.2524 -0.187952
Si -20.2111 72.7491 -0.187602
Si -19.313 69.6239 -0.187769
O -19.5908 73.4432 1.17671
O -21.8611 72.693 -0.187449
O -19.591 73.4432 3.90548
O -18.488 69.2988 1.17665
O -20.6808 68.7589 -0.18795
O -18.4878 69.2988 3.90538
O 14.0602 -72.5581 -0.183708
O 18.5924 -71.5374 2.54439
Si 18.7416 -73.1767 2.54468
Si 17.9679 -70.0183 2.54452
O 15.0417 -72.3625 2.54475
Si 15.6314 -73.8994 2.54485
Si 14.9315 -70.7238 2.54487
O 14.9685 -74.5527 3.90928
O 17.2817 -73.9477 2.54476
O 14.9684 -74.5528 1.1805
O 14.1287 -70.3472 3.9093
O 16.3512 -69.9469 2.54448
O 14.1282 -70.3473 1.18067
O 23.0525 -70.2327 -0.183076
Si 23.3038 -71.8595 -0.183816
Si 22.3334 -68.7561 -0.183566
O 19.5596 -71.2804 -0.184045
Si 20.2451 -72.7769 -0.184039
Si 19.3474 -69.6518 -0.184196
O 19.6248 -73.4709 1.18033
O 21.8952 -72.7208 -0.183968
O 19.6248 -73.4708 3.909
O 18.5225 -69.3263 1.18019
O 20.7153 -68.7871 -0.184413
O 18.5224 -69.3264 3.90894
O 27.4207 -68.6506 2.54462
Si 27.7741 -70.2583 2.54468
Si 26.6106 -67.2219 2.54455
O 24.0014 -69.9152 2.54497
Si 24.7792 -71.366 2.54489
Si 23.6869 -68.3032 2.54513
O 24.2037 -72.0975 3.90928
O 26.4225 -71.2065 2.54477
O 24.2036 -72.0976 1.18058
O 22.8437 -68.0303 3.90983
O 24.9977 -67.3541 2.54422
O 22.8425 -68.0306 1.1811
Si 32.1349 -68.3792 -0.184008
Si 30.7831 -65.4219 -0.183954
O 28.3479 -68.2741 -0.184308
Si 29.2155 -69.673 -0.184057
Si 27.9331 -66.685 -0.184185
O 28.6871 -70.4393 1.18031
O 30.8455 -69.4104 -0.184017
O 28.6872 -70.4393 3.90902
O 27.074 -66.4656 1.18029
O 29.1817 -65.6555 -0.184485
O 27.0736 -66.4658 3.90902
O -31.6478 66.7706 -0.186381
O -35.7843 64.6539 2.54134
Si -36.336 66.2048 2.54139
Si -34.8013 63.3382 2.54125
O -32.5495 66.3371 2.54131
Si -33.5032 67.6788 2.54144
Si -32.0359 64.7771 2.54163
O -33.0238 68.4765 3.90585
O -35.1136 67.3147 2.54142
O -33.0239 68.4767 1.17709
O -31.165 64.6119 3.90623
O -33.2177 63.6715 2.5411
O -31.1641 64.6121 1.17755
O -39.7785 62.2812 -0.187145
Si -40.4271 63.7942 -0.18716
Si -38.715 61.0296 -0.187136
O -36.657 64.1643 -0.187585
Si -37.6929 65.4436 -0.187341
Si -36.0459 62.6398 -0.187479
O -37.2645 66.27 1.17701
O -39.2772 64.9789 -0.187277
O -37.2645 66.2701 3.90575
O -35.166 62.53 1.17689
O -37.1555 61.4618 -0.187439
O -35.1659 62.53 3.90564
O -43.6165 59.6613 2.54128
Si -44.3584 61.1307 2.54142
Si -42.4761 58.4794 2.54142
O -40.6186 61.7376 2.54163
Si -41.7333 62.9489 2.54157
Si -39.9134 60.2544 2.5416
O -41.358 63.8007 3.90598
O -43.2851 62.3853 2.54147
O -41.3578 63.8007 1.17724
O -39.0284 60.1999 3.90604
O -40.9469 59.0091 2.5415
O -39.0282 60.2001 1.17729
Si -48.1142 58.2253 -0.187318
Si -46.0689 55.6975 -0.187282
O -44.4207 59.0659 -0.187179
Si -45.6089 60.2051 -0.1873
Si -43.6231 57.6301 -0.187285
O -45.2877 61.0788 1.17703
O -47.1222 59.5451 -0.187295
O -45.2877 61.0788 3.9058
O -42.7362 57.6318 1.17701
O -44.576 56.3221 -0.186952
O -42.7364 57.6317 3.90572
O 39.8121 -62.3069 -0.184285
Si 38.7486 -61.0553 -0.18427
O 43.6508 -59.6891 2.54441
Si 44.3927 -61.1584 2.5445
Si 42.5108 -58.5068 2.54448
O 40.6525 -61.7637 2.54446
Si 41.7668 -62.9754 2.54451
Si 39.9473 -60.2805 2.54446
O 41.391 -63.827 3.90888
O 43.3189 -62.4126 2.54448
O 41.391 -63.827 1.18013
O 39.062 -60.226 3.90871
O 40.9813 -59.0356 2.54482
O 39.0623 -60.2258 1.18003
O 47.3166 -56.8338 -0.184289
Si 48.1496 -58.2535 -0.184302
Si 46.1043 -55.7257 -0.184291
O 44.4553 -59.094 -0.184165
Si 45.6437 -60.2331 -0.184228
Si 43.6582 -57.658 -0.184236
O 45.3223 -61.1067 1.18016
O 47.1572 -59.5731 -0.184312
O 45.3222 -61.1067 3.90888
O 42.7712 -57.6594 1.17997
O 44.6114 -56.3503 -0.18378
O 42.7716 -57.6591 3.90873
O 50.7945 -53.7522 2.5443
Si 51.7153 -55.1166 2.54434
Si 49.5148 -52.7227 2.54433
O 48.0819 -56.1888 2.54444
Si 49.3396 -57.2507 2.54442
Si 47.1957 -54.8059 2.54444
O 49.074 -58.143 3.90878
O 50.8083 -56.4964 2.54435
O 49.0739 -58.143 1.18009
O 46.3106 -54.8635 3.90864
O 48.0643 -53.4405 2.54493
O 46.3111 -54.8631 1.17987
Si 55.0764 -51.7617 -0.184446
O 51.5175 -53.0602 -0.184302
Si 52.8396 -54.0408 -0.184391
Si 50.5461 -51.7359 -0.184393
O 52.6308 -54.9481 1.17996
O 54.258 -53.1957 -0.184431
O 52.6308 -54.9481 3.90872
O 49.6663 -51.8492 1.17981
O 51.3272 -50.3186 -0.183993
O 49.6668 -51.8487 3.9085
O -54.0381 50.4335 -0.187182
Si -52.6968 49.4856 -0.187246
O -57.106 46.9433 2.54143
Si -58.1898 48.1822 2.54154
Si -55.7076 46.0821 2.54147
O -54.7171 49.6987 2.54142
Si -56.0979 50.5948 2.54153
Si -53.6653 48.4373 2.54147
O -55.9458 51.513 3.90594
O -57.4614 49.6639 2.54161
O -55.9459 51.513 1.17709
O -52.794 48.6046 3.90557
O -54.3576 46.9746 2.54213
O -52.7947 48.6039 1.17691
O -59.9458 43.2669 -0.187018
Si -61.1059 44.4348 -0.187083
Si -58.4961 42.4949 -0.187056
O -57.7372 46.1671 -0.18732
Si -59.1713 46.9752 -0.187182
Si -56.6077 44.9748 -0.187263
O -59.0772 47.9013 1.17715
O -60.4732 45.9597 -0.18705
O -59.0773 47.9012 3.90586
O -55.7488 45.1968 1.17685
O -57.2054 43.471 -0.186682
O -55.7494 45.1961 3.90564
O -62.5484 39.4174 2.54194
Si -63.7793 40.5103 2.54181
Si -61.0528 38.7387 2.54195
O -60.5264 42.4522 2.54137
Si -62.0088 43.1678 2.54164
Si -59.3245 41.333 2.54165
O -61.9736 44.098 3.90597
O -63.2438 42.0721 2.54175
O -61.9737 44.0979 1.17725
O -58.4816 41.6085 3.90594
O -59.8264 39.7945 2.54196
O -58.4818 41.6081 1.17716
Si -66.2012 36.4262 -0.186956
O -63.0766 38.5678 -0.186917
Si -64.6009 39.1893 -0.186921
Si -61.8063 37.5267 -0.186788
O -64.6242 40.1198 1.17744
O -65.7649 38.0185 -0.186979
O -64.6242 40.1198 3.90621
O -60.9825 37.8547 1.1776
O -62.2106 35.9598 -0.18686
O -60.9824 37.8548 3.90631
O 59.9747 -43.2867 -0.184907
Si 58.5249 -42.515 -0.184681
O 62.5809 -39.4398 2.54481
Si 63.8119 -40.5326 2.5442
Si 61.0855 -38.7608 2.54419
O 60.5566 -42.4723 2.54387
Si 62.0388 -43.1883 2.54398
Si 59.3544 -41.3533 2.54404
O 62.0029 -44.1184 3.90832
O 63.275 -42.0939 2.54425
O 62.0031 -44.1181 1.17943
O 58.5112 -41.6283 3.90833
O 59.8579 -39.8153 2.54399
O 58.5112 -41.6284 1.17976
O 64.9372 -35.4354 -0.184586
Si 66.2345 -36.4486 -0.184804
Si 63.402 -34.8518 -0.184646
O 63.1098 -38.5907 -0.184939
Si 64.6342 -39.2119 -0.184571
Si 61.8398 -37.5494 -0.184584
O 64.657 -40.1424 1.17983
O 65.7982 -38.041 -0.184482
O 64.6573 -40.1424 3.90845
O 61.0159 -37.8768 1.17982
O 62.2442 -35.9825 -0.184848