3072
 Atoms. Timestep: 5431
O 85.5473 40.655 2.76149
Si 87.1252 41.1234 2.75716
Si 84.1779 39.7472 2.75745
O 87.0579 37.3424 2.75731
Si 88.4464 38.2262 2.75715
Si 85.4744 36.9042 2.75718
O 89.2211 37.7168 4.12059
O 88.1704 39.8502 2.75715
O 89.221 37.7169 1.39359
O 85.2751 36.0343 4.12075
O 84.4309 38.1454 2.75701
O 85.2753 36.0341 1.39372
O 83.4344 44.7956 0.0296743
Si 84.9873 45.3411 0.0302599
Si 82.1114 43.8214 0.0300647
O 85.1064 41.5616 0.0257973
Si 86.4498 42.5126 0.0298067
Si 83.5464 41.0459 0.0300731
O 87.2481 42.0417 1.39335
O 86.094 44.121 0.0303517
O 87.2492 42.0426 4.12042
O 83.3909 40.1676 1.39387
O 82.443 42.2342 0.0302289
O 83.3898 40.1668 4.12079
O 69.9877 63.6845 2.75693
Si 71.3627 64.5892 2.75683
Si 68.9393 62.4194 2.75699
O 72.3914 60.9507 2.76
Si 73.4648 62.1984 2.75772
Si 71.0026 60.0727 2.75752
O 74.3536 61.9361 4.1213
O 72.7313 63.6731 2.75701
O 74.3534 61.9352 1.39431
O 71.0635 59.1823 4.12114
O 69.6446 60.9592 2.75663
O 71.0646 59.1821 1.39415
O 66.7703 67.0388 0.0295693
Si 68.0997 68.0092 0.0297013
Si 65.7846 65.7243 0.0297311
O 69.3041 64.4249 0.0298871
Si 70.3155 65.7234 0.0297938
Si 67.9595 63.4807 0.0299647
O 71.2159 65.5042 1.3933
O 69.5113 67.1606 0.029755
O 71.2159 65.5042 4.12031
O 68.0637 62.5945 1.39368
O 66.56 64.3001 0.0295292
O 68.0641 62.5941 4.1206
O 48.4613 81.2596 2.75718
Si 49.5175 82.5219 2.7573
Si 47.8217 79.7461 2.75707
O 51.5504 79.3333 2.75973
Si 52.2188 80.8374 2.75768
Si 50.473 78.0929 2.75795
O 53.1456 80.8417 4.12114
O 51.0919 82.0385 2.75739
O 53.1454 80.8412 1.39412
O 50.7876 77.2574 4.12129
O 48.9174 78.5508 2.75796
O 50.7878 77.258 1.39435
O 27.2581 90.632 0.030684
Si 45.4077 84.857 0.0301218
Si 43.8494 82.0018 0.0300443
O 47.5937 81.7715 0.030003
Si 48.188 83.3064 0.0302606
Si 46.5782 80.48 0.0300345
O 49.1133 83.3559 1.3938
O 47.0038 84.4511 0.0302519
O 49.1134 83.3559 4.12078
O 46.9337 79.6609 1.39328
O 45.0021 80.8613 0.030769
O 46.9328 79.6615 4.12026
O 22.7773 91.8665 2.75804
Si 23.4226 93.3807 2.75785
Si 22.6035 90.2327 2.75782
O 26.2921 90.9184 2.75779
Si 26.4965 92.5516 2.75775
Si 25.6201 89.4191 2.75773
O 27.3825 92.8238 4.12123
O 25.0696 93.3744 2.75775
O 27.3826 92.8237 1.39428
O 26.1629 88.7109 4.12132
O 23.9986 89.4063 2.75762
O 26.1632 88.7109 1.3943
O -0.233542 94.6795 0.0306247
Si 18.8118 94.4243 0.0308694
Si -0.00465634 93.0525 0.0308154
O 21.7984 92.1049 0.0306565
Si 21.9223 93.7461 0.0308196
Si 21.2008 90.5744 0.0307911
O 22.7937 94.0616 1.39438
O 20.4571 94.4984 0.0308534
O 22.7938 94.0616 4.12135
O 21.7778 89.8938 1.39438
O 19.5819 90.4826 0.0308312
O 21.7779 89.8938 4.1213
O -4.87943 94.5583 2.75766
Si -4.70207 96.1946 2.75756
Si -4.57102 92.9445 2.75761
O -1.24084 94.6728 2.75811
Si -1.51989 96.2948 2.7578
Si -1.44827 93.0429 2.75785
O -0.75124 96.8128 4.12131
O -3.12429 96.6674 2.75763
O -0.751197 96.8127 1.39431
O -0.723235 92.5231 4.12149
O -2.99597 92.5594 2.75743
O -0.722785 92.5231 1.39443
O -27.7153 90.5639 0.0288987
Si -9.41716 95.8531 0.0303079
Si -27.024 89.0734 0.0315648
O -5.88533 94.5018 0.0304668
Si -6.24366 96.1082 0.0305213
Si -6.0124 92.8637 0.0305774
O -5.50149 96.6634 1.39399
O -7.8643 96.4022 0.030435
O -5.50148 96.6634 4.12111
O -5.26254 92.3802 1.3942
O -7.53472 92.3053 0.0303126
O -5.26223 92.3802 4.12117
O -32.1267 89.1005 2.75752
Si -32.4318 90.7178 2.75759
Si -31.3633 87.6456 2.75726
O -28.6777 90.2651 2.76133
Si -29.4154 91.7364 2.75833
Si -28.403 88.6452 2.7588
O -28.8304 92.4554 4.12183
O -31.0589 91.6278 2.75777
O -28.8299 92.4547 1.3948
O -27.558 88.3578 4.1223
O -29.7441 87.7337 2.75829
O -27.5579 88.3587 1.39526
O -52.824 78.6537 0.028443
Si -36.8453 89.0234 0.0293896
Si -35.6273 86.0072 0.029457
O -33.0732 88.7548 0.0300887
Si -33.8822 90.1882 0.0305168
Si -32.7195 87.1503 0.0302048
O -33.3329 90.9346 1.39409
O -35.5184 89.9993 0.0302382
O -33.3328 90.9348 4.12111
O -31.861 86.9053 1.39345
O -34.0145 86.1744 0.0307639
O -31.862 86.9049 4.12045
O -56.6222 75.9739 2.75681
Si -57.3832 77.4333 2.75676
Si -55.4697 74.8029 2.75683
O -53.6587 78.0885 2.75984
Si -54.7914 79.2827 2.75766
Si -52.9262 76.6178 2.75751
O -54.44 80.1404 4.12129
O -56.3329 78.7022 2.75699
O -54.439 80.1402 1.39425
O -52.0343 76.5878 4.1212
O -53.9456 75.3567 2.75671
O -52.0338 76.589 1.39424
O -73.4045 59.9729 0.0294352
Si -61.1163 74.5314 0.0299211
Si -59.0762 71.9979 0.0296994
O -57.4283 75.3684 0.029687
Si -58.6181 76.5056 0.0297347
Si -56.6246 73.9354 0.0298273
O -58.3085 77.3795 1.39317
O -60.1293 75.8502 0.0299137
O -58.3087 77.3793 4.1202
O -55.732 73.9498 1.39325
O -57.581 72.6258 0.0303141
O -55.7322 73.9497 4.1203
O -76.2618 56.3057 2.75689
Si -77.4139 57.4812 2.75683
Si -74.8188 55.52 2.75688
O -74.0396 59.1898 2.75674
Si -75.4703 60.0036 2.75679
Si -72.9117 57.9951 2.75668
O -75.382 60.9265 4.12029
O -76.7769 59.0004 2.75695
O -75.3822 60.9263 1.39315
O -72.049 58.2262 4.11984
O -73.5212 56.4924 2.75744
O -72.0499 58.2253 1.39285
O -87.6591 36.1106 0.029754
Si -80.1419 53.6182 0.0300583
Si -77.4534 51.7872 0.0300462
O -76.8571 55.4917 0.0295747
Si -78.3261 56.2341 0.0298013
Si -75.6716 54.3542 0.0298379
O -78.2836 57.1605 1.39321
O -79.5812 55.1672 0.0300127
O -78.2838 57.1604 4.12034
O -74.8217 54.6276 1.39321
O -76.2056 52.823 0.0300762
O -74.822 54.6272 4.12025
O -89.3249 31.7701 2.76013
Si -90.7692 32.5594 2.75689
Si -87.7157 31.4383 2.75701
O -88.0388 35.1761 2.7568
Si -89.6443 35.5384 2.75682
Si -86.6118 34.3616 2.75677
O -89.8285 36.447 4.1203
O -90.6023 34.1982 2.75682
O -89.8286 36.447 1.3933
O -85.854 34.8336 4.12018
O -86.7574 32.7465 2.75701
O -85.8542 34.8333 1.39316
O -94.3662 9.13532 0.0290683
Si -92.2544 28.0699 0.0301398
Si -89.1496 27.1 0.0299423
O -89.6574 30.818 0.0263394
Si -91.2788 31.1009 0.0296257
Si -88.1921 30.0746 0.0297085
O -91.5074 31.9993 1.39314
O -92.169 29.7149 0.0302011
O -91.5086 31.9994 4.12022
O -87.4592 30.5837 1.39331
O -88.2574 28.4542 0.0300816
O -87.4583 30.5831 4.12031
O -94.7008 4.49822 2.75691
Si -96.3121 4.83414 2.75684
Si -93.0647 4.64828 2.75665
O -94.4585 8.13108 2.75663
Si -96.1001 8.01148 2.75653
Si -92.8565 7.76601 2.75647
O -96.5401 8.82761 4.12
O -96.6279 6.45095 2.75671
O -96.5401 8.82737 1.39291
O -92.2681 8.43783 4.11967
O -92.5272 6.17821 2.75733
O -92.2683 8.43679 1.39269
O -94.8048 -0.149456 0.0302989
Si -96.4307 0.106312 0.0301307
Si -93.178 0.0810299 0.0304967
O -94.7431 3.49083 0.0294733
Si -96.3767 3.29029 0.0298206
Si -93.1251 3.20523 0.0296174
O -96.8566 4.0836 1.39336
O -96.8263 1.70547 0.0299041
O -96.8566 4.08368 4.12036
O -92.5708 3.90545 1.39281
O -92.7172 1.63577 0.0304482
O -92.5708 3.90442 4.11993
O -94.6796 -4.79669 2.75671
Si -96.3162 -4.62154 2.75677
Si -93.0662 -4.48599 2.75656
O -94.7971 -1.15795 2.75759
Si -96.4189 -1.43882 2.75716
Si -93.1669 -1.36311 2.75752
O -96.9374 -0.670333 4.12075
O -96.79 -3.04382 2.75686
O -96.9374 -0.670094 1.39369
O -92.6478 -0.637139 4.12109
O -92.6823 -2.91054 2.75737
O -92.6479 -0.637023 1.39402
O -94.3246 -9.43195 0.0253515
Si -95.9678 -9.33795 0.028862
Si -92.7286 -9.04171 0.0288728
O -94.6223 -5.80335 0.0295164
Si -96.2283 -6.1642 0.0297134
Si -92.984 -5.92768 0.0295117
O -96.784 -5.42217 1.39331
O -96.5193 -7.78564 0.0294868
O -96.784 -5.42205 4.12026
O -92.5014 -5.17642 1.39273
O -92.4233 -7.44918 0.0299477
O -92.5014 -5.1773 4.11989
O -93.7397 -14.0435 2.75595
Si -95.3856 -14.0312 2.75578
Si -92.1649 -13.5748 2.75583
O -94.2173 -10.4342 2.75944
Si -95.8033 -10.8743 2.75612
Si -92.5749 -10.4774 2.75616
O -96.3959 -10.1606 4.11945
O -96.0135 -12.5082 2.75587
O -96.3948 -10.1608 1.39243
O -92.1296 -9.70327 4.11935
O -91.9392 -11.9691 2.75622
O -92.1306 -9.7042 1.39228
O -92.9264 -18.6206 0.0283872
Si -94.5709 -18.6898 0.0286348
Si -91.3769 -18.0742 0.0287157
O -93.5826 -15.0394 0.0285942
Si -95.1449 -15.5575 0.0287418
Si -91.9401 -15.0009 0.0287808
O -95.7716 -14.8741 1.39225
O -95.2736 -17.1998 0.0287499
O -95.7717 -14.8742 4.11925
O -91.5343 -14.206 1.39225
O -91.2311 -16.4592 0.0287439
O -91.5342 -14.2062 4.1193
O -91.8865 -23.1513 2.75569
Si -93.5256 -23.3021 2.75559
Si -90.366 -22.5289 2.75561
O -92.72 -19.6072 2.75597
Si -94.2546 -20.2022 2.75567
Si -91.0814 -19.4875 2.75575
O -94.9146 -19.5509 4.11912
O -94.3015 -21.8489 2.75561
O -94.9145 -19.5509 1.39217
O -90.7155 -18.6736 4.11933
O -90.3007 -20.9087 2.75544
O -90.7157 -18.6734 1.39226
O -90.6232 -27.6251 0.0245641
Si -92.2528 -27.8568 0.0280175
Si -89.1354 -26.9281 0.0280874
O -91.6313 -24.1266 0.0285306
Si -93.1345 -24.7969 0.02855
Si -90.0006 -23.9258 0.028572
O -93.826 -24.1792 1.39207
O -93.0998 -26.4439 0.0283694
O -93.8261 -24.1792 4.11914
O -89.6756 -23.0949 1.39223
O -89.1505 -25.3067 0.0282091
O -89.6757 -23.0945 4.11916
O -81.1059 -48.7682 2.75334
Si -82.6302 -49.3892 2.75313
Si -79.8323 -47.7302 2.75308
O -82.9344 -45.6202 2.76165
Si -84.2293 -46.6362 2.75426
Si -81.4018 -45.0282 2.75437
O -85.0512 -46.2067 4.1176
O -83.7954 -48.2251 2.75323
O -85.0494 -46.2052 1.39067
O -81.2883 -44.1421 4.11759
O -80.2414 -46.161 2.75354
O -81.2904 -44.1432 1.39059
O -78.5988 -52.682 0.0257649
Si -80.091 -53.3766 0.0258457
Si -77.3772 -51.5832 0.0258817
O -80.5786 -49.6271 0.025783
Si -81.8224 -50.7051 0.0260636
Si -79.0766 -48.9611 0.0260093
O -82.6633 -50.3155 1.38962
O -81.3116 -52.2709 0.0259112
O -82.6634 -50.3155 4.11659
O -79.0074 -48.0712 1.38952
O -77.8623 -50.0359 0.0257572
O -79.0073 -48.0713 4.11651
O -63.392 -70.1826 2.75192
Si -64.6733 -71.2157 2.75207
Si -62.4704 -68.8224 2.75193
O -66.0479 -67.693 2.75582
Si -66.9959 -69.0385 2.7526
Si -64.7501 -66.6853 2.75313
O -67.906 -68.8631 4.11604
O -66.1238 -70.4356 2.75215
O -67.9055 -68.8624 1.38905
O -64.8959 -65.8053 4.11704
O -63.3131 -67.4369 2.75166
O -64.898 -65.8045 1.39003
O -44.4193 -83.5054 0.0245481
Si -61.0964 -74.3058 0.0244181
Si -59.0125 -71.8082 0.0241663
O -62.6404 -70.8538 0.025092
Si -63.5218 -72.2438 0.0250296
Si -61.3931 -69.7843 0.0249255
O -64.4391 -72.1124 1.38859
O -62.583 -73.5971 0.0247724
O -64.4392 -72.1122 4.1156
O -61.5823 -68.9121 1.38848
O -59.9214 -70.4652 0.0249023
O -61.5824 -68.912 4.11549
O -40.2658 -85.5909 2.75183
Si -41.1941 -86.9501 2.75156
Si -39.7764 -84.0225 2.75167
O -43.5277 -83.9747 2.75171
Si -44.0468 -85.5366 2.75157
Si -42.5761 -82.6353 2.7516
O -44.9688 -85.6307 4.11507
O -42.8082 -86.6222 2.75151
O -44.9688 -85.6307 1.38807
O -42.9701 -81.835 4.11533
O -40.9833 -82.9395 2.75083
O -42.9709 -81.8346 1.38834
O -18.2475 -92.8443 0.0234653
Si -36.8759 -88.8741 0.0240926
Si -35.6036 -85.8806 0.0239739
O -39.3524 -86.0162 0.0245438
Si -39.7943 -87.6017 0.0245223
Si -38.4675 -84.6317 0.0246407
O -40.7105 -87.7409 1.38808
O -38.5041 -88.6255 0.0244646
O -40.7106 -87.7409 4.11506
O -38.9 -83.8517 1.38848
O -36.8619 -84.8578 0.0237823
O -38.9011 -83.8512 4.11547
O -13.6674 -93.6348 2.7535
Si -14.1611 -95.205 2.75354
Si -13.6544 -91.9918 2.75375
O -17.258 -93.0347 2.75727
Si -17.3013 -94.6801 2.75387
Si -16.7361 -91.4768 2.75394
O -18.1563 -95.0383 4.11739
O -15.8009 -95.3596 2.75338
O -18.1566 -95.0371 1.39036
O -17.3461 -90.8245 4.11711
O -15.1236 -91.3057 2.75436
O -17.3457 -90.8257 1.39014
O 9.50912 -94.1796 0.028486
Si -9.46995 -95.7921 0.0260732
Si 9.12224 -92.5828 0.0287083
O -12.6696 -93.7766 0.0269093
Si -12.6322 -95.4221 0.0265311
Si -12.2249 -92.1949 0.0267434
O -13.4686 -95.8213 1.39013
O -11.1002 -96.027 0.0262897
O -13.4688 -95.8212 4.11708
O -12.8663 -91.5738 1.39004
O -10.6228 -91.9449 0.0272072
O -12.8655 -91.574 4.11709
O 14.1215 -93.6057 2.76122
Si 14.1052 -95.2515 2.75545
Si 13.6566 -92.0299 2.75506
O 10.5113 -94.0745 2.75578
Si 10.9478 -95.6615 2.75524
Si 10.5581 -92.4322 2.75576
O 10.2336 -96.2521 4.11882
O 12.5809 -95.8758 2.75499
O 10.2333 -96.2521 1.39178
O 9.7861 -91.9856 4.11961
O 12.0514 -91.8001 2.7551
O 9.78473 -91.9858 1.39261
O 36.4572 -87.3906 0.0289213
Si 18.7645 -94.4494 0.0283597
Si 35.6232 -85.975 0.0291577
O 15.1174 -93.4512 0.0214507
Si 15.6312 -95.0149 0.0279725
Si 15.0834 -91.8086 0.0275395
O 14.9467 -95.6389 1.39172
O 17.2729 -95.1482 0.0285281
O 14.9469 -95.6409 4.11876
O 14.2892 -91.4019 1.39103
O 16.5435 -91.1035 0.0291512
O 14.29 -91.3997 4.11799
O 40.7042 -85.5013 2.75624
Si 41.1665 -87.0809 2.75603
Si 39.8016 -84.1283 2.75612
O 37.3859 -86.9986 2.75632
Si 38.2644 -88.3905 2.75623
Si 36.9536 -85.4135 2.75618
O 37.7523 -89.1632 4.11971
O 39.8893 -88.1211 2.75619
O 37.7523 -89.1631 1.39272
O 36.0841 -85.211 4.11955
O 38.1989 -84.3748 2.75652
O 36.0847 -85.2108 1.39251
O 60.2804 -73.0775 0.0301516
Si 45.3921 -84.9606 0.0291826
Si 59.0719 -71.9644 0.0303151
O 41.6123 -85.0642 0.0286729
Si 42.558 -86.4113 0.0289944
Si 41.1029 -83.5021 0.0290757
O 42.0845 -87.2082 1.39245
O 44.1677 -86.0623 0.0292126
O 42.0847 -87.2082 4.11948
O 40.2246 -83.3427 1.39248
O 42.2956 -82.4035 0.0295281
O 40.225 -83.3423 4.11945
O 63.7982 -70.0386 2.7573
Si 64.6987 -71.4163 2.75721
Si 62.5364 -68.9863 2.75716
O 61.0559 -72.4333 2.75756
Si 62.3003 -73.5107 2.75748
Si 60.1828 -71.0415 2.75734
O 62.0338 -74.3986 4.12098
O 63.7775 -72.7819 2.75741
O 62.0338 -74.3986 1.39396
O 59.2919 -71.0997 4.12069
O 61.0738 -69.6867 2.75761
O 59.2924 -71.0993 1.39367
O 78.9188 -52.4588 0.0297881
Si 68.1292 -68.1616 0.0294853
Si 77.4386 -51.7457 0.0301504
O 64.5412 -69.357 0.0298903
Si 65.837 -70.3719 0.0301643
Si 63.6005 -68.0099 0.0301087
O 65.6145 -71.2719 1.39367
O 67.2766 -69.571 0.0302049
O 65.6146 -71.2718 4.12064
O 62.7136 -68.1118 1.39347
O 64.4237 -66.6128 0.0302483
O 62.7139 -68.1115 4.12059
O 81.3993 -48.5265 2.76081
Si 82.6618 -49.5825 2.75742
Si 79.8859 -47.8871 2.75761
O 79.4733 -51.6162 2.75775
Si 80.9773 -52.2848 2.7574
Si 78.2327 -50.5388 2.75721
O 80.9809 -53.212 4.1209
O 82.1782 -51.1573 2.75728
O 80.9807 -53.212 1.39388
O 77.3973 -50.8542 4.12053
O 78.6907 -48.9831 2.75778
O 77.3978 -50.8537 1.39349
O 90.7578 -27.3078 0.0298974
Si 84.9962 -45.4696 0.0301468
Si 82.1403 -43.9126 0.0297453
O 81.9117 -47.6577 0.0269556
Si 83.4468 -48.2516 0.0301484
Si 80.6197 -46.6426 0.0303084
O 83.4953 -49.1772 1.39375
O 84.5908 -47.0662 0.0303731
O 83.4963 -49.1777 4.12078
O 79.8014 -46.999 1.39382
O 81.0006 -45.0663 0.0309204
O 79.8007 -46.9979 4.12083
O 91.9895 -22.8246 2.75703
Si 93.5044 -23.4683 2.75683
Si 90.3555 -22.6523 2.75697
O 91.0438 -26.3404 2.75727
Si 92.6772 -26.5434 2.75701
Si 89.5438 -25.67 2.75712
O 92.9498 -27.4296 4.12052
O 93.499 -25.1156 2.75691
O 92.9497 -27.4296 1.39349
O 88.8361 -26.2138 4.12075
O 89.5302 -24.0483 2.7567
O 88.836 -26.2143 1.39378
O 94.782 0.19669 0.0296188
Si 94.5431 -18.8545 0.0296096
Si 91.358 -18.1944 0.0296201
O 92.2275 -21.8443 0.0298067
Si 93.8688 -21.9667 0.0297924
Si 90.6963 -21.2484 0.0299393
O 94.1848 -22.8384 1.39332
O 94.6191 -20.5001 0.0297998
O 94.1848 -22.8383 4.1203
O 90.0163 -21.8265 1.39357
O 90.6026 -19.6294 0.0297604
O 90.0162 -21.8268 4.12054
O 94.6588 4.84405 2.75671
Si 96.2953 4.66813 2.7566
Si 93.0453 4.53422 2.75664
O 94.7747 1.20502 2.75722
Si 96.3966 1.48538 2.75705
Si 93.1447 1.41104 2.75694
O 96.9149 0.716588 4.12057
O 96.7684 3.09019 2.75688
O 96.9148 0.716572 1.39354
O 92.6254 0.684589 4.12021
O 92.6608 2.9588 2.7573
O 92.6254 0.685328 1.39326
O 94.306 9.47965 0.0293465
Si 95.9492 9.38462 0.0295317
Si 92.7097 9.09056 0.0296259
O 94.6019 5.85092 0.029231
Si 96.208 6.21074 0.0295458
Si 92.9636 5.97626 0.0295922
O 96.7635 5.46828 1.39301
O 96.4999 7.83203 0.0296864
O 96.7635 5.46855 4.12
O 92.4808 5.22518 1.3929
O 92.4037 7.49811 0.0300873
O 92.4807 5.22597 4.11993
O 93.7248 14.0922 2.75679
Si 95.3707 14.0783 2.75675
Si 92.1496 13.6248 2.75674
O 94.1993 10.4824 2.75668
Si 95.7857 10.9211 2.75657
Si 92.5568 10.5267 2.75666
O 96.3773 10.207 4.12
O 95.9973 12.5548 2.75676
O 96.3772 10.2072 1.39298
O 92.1117 9.75282 4.12002
O 91.9225 12.0191 2.75718
O 92.1117 9.75337 1.39301
O 92.9176 18.6705 0.0264449
Si 94.5621 18.738 0.0298306
Si 91.3674 18.1259 0.0297285
O 93.569 15.0884 0.0295318
Si 95.1318 15.6049 0.0297413
Si 91.9264 15.0516 0.0297156
O 95.7577 14.9208 1.39321
O 95.2628 17.2471 0.0300207
O 95.7577 14.921 4.12022
O 91.5198 14.2566 1.39297
O 91.2195 16.511 0.0304281
O 91.5197 14.2574 4.12007
O 91.8843 23.2032 2.75901
Si 93.5235 23.3521 2.75757
Si 90.3631 22.5825 2.75794
O 92.7128 19.6579 2.76026
Si 94.2481 20.2511 2.75713
Si 91.074 19.5399 2.75704
O 94.9075 19.5989 4.12052
O 94.2974 21.8977 2.75711
O 94.9065 19.5987 1.3934
O 90.7066 18.7258 4.1202
O 90.2955 20.9623 2.7575
O 90.7075 18.7268 1.39317
O 90.6268 27.6788 0.0304683
Si 92.2566 27.9089 0.0304285
Si 89.1382 26.9834 0.0302645
O 91.6306 24.1792 0.0297269
Si 93.1346 24.8477 0.0304878
Si 89.9997 23.98 0.030832
O 93.825 24.229 1.39409
O 93.1019 26.4948 0.0304056
O 93.8254 24.2288 4.12115
O 89.6739 23.1495 1.3945
O 89.1514 25.362 0.0305268
O 89.6736 23.1489 4.12156
O 89.1485 32.0864 2.75733
Si 90.7649 32.3969 2.75716
Si 87.6962 31.3181 2.75719
O 90.3247 28.6409 2.7573
Si 91.7938 29.3832 2.75744
Si 88.7057 28.3612 2.75727
O 92.5142 28.7996 4.12096
O 91.6794 31.0266 2.75738
O 92.5143 28.7996 1.39396
O 88.4215 27.5151 4.12075
O 87.7898 29.6993 2.75734
O 88.4214 27.5153 1.39368
O 87.4536 36.4152 0.0298947
Si 89.0526 36.8052 0.0301201
Si 86.0411 35.5759 0.030151
O 88.799 33.0323 0.029794
Si 90.2295 33.8463 0.0301182
Si 87.1958 32.6727 0.0301389
O 90.9781 33.299 1.39354
O 90.0339 35.482 0.0302957
O 90.9781 33.2993 4.12061
O 86.954 31.8136 1.39367
O 86.2147 33.9637 0.0300989
O 86.9538 31.8137 4.12061
O -89.1404 -32.031 2.75418
Si -90.7566 -32.3429 2.75442
Si -87.6888 -31.2614 2.75431
O -90.32 -28.5866 2.75892
Si -91.7883 -29.3304 2.75527
Si -88.7012 -28.3054 2.7554
O -92.5101 -28.7478 4.11865
O -91.6723 -30.9736 2.75466
O -92.509 -28.7474 1.39173
O -88.4174 -27.459 4.11887
O -87.784 -29.6426 2.75491
O -88.4186 -27.4591 1.39179
O -87.4424 -36.3583 0.0264978
Si -89.0412 -36.7494 0.0269602
Si -86.0305 -35.5181 0.0268646
O -88.7902 -32.9764 0.0274078
Si -90.2201 -33.7916 0.0273823
Si -87.1873 -32.6156 0.0272976
O -90.9691 -33.2453 1.39092
O -90.0234 -35.427 0.0272046
O -90.9691 -33.2453 4.11791
O -86.9462 -31.756 1.39064
O -86.2053 -33.906 0.0277985
O -86.946 -31.7567 4.1176
O -85.5337 -40.5968 2.75427
Si -87.1114 -41.0661 2.75403
Si -84.1647 -39.6883 2.75399
O -87.0461 -37.2853 2.75411
Si -88.4342 -38.1698 2.75399
Si -85.4628 -36.846 2.75391
O -89.2093 -37.661 4.1174
O -88.1573 -39.7935 2.754
O -89.2091 -37.6611 1.39049
O -85.2645 -35.9753 4.11708
O -84.4186 -38.0867 2.75471
O -85.264 -35.9765 1.39005
O -83.4194 -44.7366 0.0199389
Si -84.9722 -45.2824 0.0267231
Si -82.0967 -43.762 0.0267637
O -85.0925 -41.503 0.0267317
Si -86.4353 -42.4547 0.0269885
Si -83.5326 -40.9869 0.0269443
O -87.2343 -41.9849 1.39054
O -86.0793 -44.0629 0.0270388
O -87.2343 -41.9849 4.1175
O -83.3772 -40.1078 1.39032
O -82.4288 -42.1748 0.0274423
O -83.3768 -40.1085 4.11721
O 81.1206 48.8273 2.75836
Si 82.6449 49.4484 2.75665
Si 79.8469 47.7894 2.75688
O 82.9493 45.6794 2.75759
Si 84.2443 46.6953 2.7573
Si 81.4166 45.0876 2.75712
O 85.0653 46.2648 4.1208
O 83.8102 48.2842 2.75708
O 85.0653 46.2647 1.39382
O 81.3041 44.2021 4.12057
O 80.2561 46.2203 2.75725
O 81.3041 44.2024 1.39351
O 78.6123 52.741 0.0298714
Si 80.1044 53.4358 0.030159
Si 77.391 51.642 0.0299872
O 80.5929 49.6863 0.0276486
Si 81.8366 50.7643 0.029487
Si 79.0909 49.0201 0.029701
O 82.6776 50.3742 1.39283
O 81.3252 52.3301 0.0301449
O 82.6777 50.3751 4.11993
O 79.0223 48.1302 1.39318
O 77.8764 50.0947 0.0302461
O 79.0215 48.1304 4.12011
O 75.9158 56.5273 2.75772
Si 77.3722 57.2942 2.7573
Si 74.7495 55.37 2.75745
O 78.0433 53.573 2.75727
Si 79.2327 54.7106 2.7572
Si 76.5756 52.8343 2.75702
O 80.0919 54.3626 4.12066
O 78.6456 56.2494 2.75728
O 80.0918 54.3626 1.39369
O 76.5504 51.9419 4.12046
O 75.3101 53.8483 2.75714
O 76.5502 51.9422 1.39342
O 73.0385 60.1779 0.0282534
Si 74.4558 61.0147 0.0305408
Si 71.9299 58.9652 0.0303087
O 75.3069 57.3307 0.0301263
Si 76.4396 58.5248 0.0302609
Si 73.877 56.5213 0.0304037
O 77.3146 58.2191 1.39375
O 75.7784 60.0332 0.0303664
O 77.3146 58.2192 4.12079
O 73.895 55.6291 1.39412
O 72.5636 57.4725 0.0299389
O 73.8952 55.6287 4.12104
O -75.9038 -56.4688 2.75275
Si -77.3604 -57.2352 2.7525
Si -74.737 -55.312 2.75261
O -78.03 -53.514 2.75304
Si -79.22 -54.6512 2.75286
Si -76.5622 -52.7757 2.75289
O -80.0789 -54.3033 4.11638
O -78.6334 -56.1902 2.75263
O -80.0789 -54.3031 1.38942
O -76.5364 -51.8837 4.11657
O -75.2969 -53.7901 2.75201
O -76.5368 -51.8832 1.38957
O -73.0295 -60.1213 0.0190749
Si -74.4472 -60.9574 0.0240622
Si -71.9202 -58.9093 0.0240559
O -75.2956 -57.2724 0.0254475
Si -76.4289 -58.466 0.025439
Si -73.8653 -56.4638 0.0255545
O -77.3035 -58.1601 1.38899
O -75.769 -59.975 0.0252144
O -77.3036 -58.1601 4.116
O -73.8824 -55.5718 1.38945
O -72.5527 -57.4161 0.0244184
O -73.8831 -55.5708 4.1164
O -69.9816 -63.6302 2.75423
Si -71.3571 -64.5341 2.75189
Si -68.9324 -62.3658 2.75164
O -72.3833 -60.8947 2.75599
Si -73.4574 -62.1419 2.75143
Si -70.994 -60.0176 2.75148
O -74.3467 -61.8787 4.11454
O -72.7251 -63.6171 2.75169
O -74.3449 -61.8784 1.38745
O -71.0539 -59.1266 4.11478
O -69.6367 -60.905 2.75107
O -71.0552 -59.1275 1.38784
O -66.7662 -66.9863 0.0230312
Si -68.0962 -67.9559 0.0253709
Si -65.7797 -65.6724 0.0258554
O -69.2985 -64.371 0.021889
Si -70.3107 -65.6689 0.024705
Si -67.9533 -63.4276 0.0244117
O -71.2107 -65.4489 1.38825
O -69.5073 -67.1066 0.0252946
O -71.2111 -65.4495 4.11526
O -68.0573 -62.5415 1.38814
O -66.5543 -64.2477 0.0244222
O -68.057 -62.5407 4.11513
O 63.3943 70.2333 2.75697
Si 64.6751 71.2671 2.75679
Si 62.4737 68.8723 2.75682
O 66.0517 67.7451 2.75691
Si 66.9988 69.0912 2.75673
Si 64.7546 66.7366 2.75678
O 67.9088 68.916 4.12023
O 66.126 70.4879 2.75673
O 67.9088 68.9159 1.3932
O 64.9018 65.8563 4.12027
O 63.3172 67.4873 2.75686
O 64.902 65.8562 1.39333
O 59.8668 73.2593 0.0297466
Si 61.0957 74.3542 0.0299029
Si 59.0135 71.8552 0.0298979
O 62.6423 70.9037 0.0296234
Si 63.5229 72.2943 0.0297651
Si 61.3958 69.8334 0.0298046
O 64.4403 72.1635 1.39328
O 62.5829 73.6467 0.0298588
O 64.4403 72.1635 4.12031
O 61.5858 68.9611 1.39321
O 59.9235 70.513 0.0303487
O 61.5854 68.9614 4.12024
O 56.1963 76.11 2.75755
Si 57.3704 77.2636 2.75736
Si 55.4123 74.6661 2.75722
O 59.083 73.8923 2.75694
Si 59.8948 75.3241 2.75695
Si 57.89 72.7625 2.75694
O 60.8175 75.2381 4.12042
O 58.8902 76.6292 2.75717
O 60.8174 75.2382 1.39338
O 58.1225 71.9003 4.12018
O 56.3864 73.3697 2.75784
O 58.1218 71.901 1.39318
O 52.3918 78.7795 0.0287442
Si 53.5083 79.9888 0.0305138
Si 51.6792 77.2991 0.0307721
O 55.3827 76.7044 0.0298852
Si 56.1238 78.174 0.0303325
Si 54.2462 75.5179 0.0301859
O 57.0495 78.133 1.3939
O 55.0572 79.4289 0.0304952
O 57.0496 78.133 4.12084
O 54.5202 74.6681 1.39344
O 52.7149 76.0514 0.0310434
O 54.5193 74.6686 4.12045
O -59.8668 -73.2117 0.0238163
O -56.1977 -76.0645 2.75392
Si -57.3725 -77.2172 2.75109
Si -55.4127 -74.6211 2.7513
O -59.0833 -73.8453 2.75159
Si -59.8961 -75.2765 2.75144
Si -57.8896 -72.7163 2.75122
O -60.8188 -75.19 4.11492
O -58.8921 -76.5821 2.75136
O -60.8186 -75.1899 1.38789
O -58.1215 -71.8539 4.11442
O -56.3863 -73.3242 2.75194
O -58.1208 -71.8547 1.38741
O -52.3944 -78.7358 0.0218934
Si -53.5117 -79.9444 0.0246989
Si -51.6808 -77.2558 0.0244636
O -55.3843 -76.6591 0.0209789
Si -56.1264 -78.1282 0.0238565
Si -54.247 -75.4733 0.0240356
O -57.0521 -78.0862 1.38728
O -55.0603 -79.3836 0.0245985
O -57.0521 -78.0873 4.1143
O -54.5209 -74.6237 1.38743
O -52.716 -76.0076 0.0250001
O -54.5195 -74.6236 4.1144
O -48.4656 -81.2187 2.75192
Si -49.5225 -82.4805 2.75151
Si -47.8251 -79.7056 2.75165
O -51.5533 -79.2904 2.7546
Si -52.2227 -80.794 2.75194
Si -50.4752 -78.0505 2.75171
O -53.1494 -80.7979 4.11547
O -51.0966 -81.9959 2.75149
O -53.1493 -80.7969 1.38842
O -50.7893 -77.2146 4.11495
O -48.92 -78.5095 2.75162
O -50.7895 -77.2156 1.38804
Si -45.4131 -84.8174 0.0245445
Si -43.8537 -81.9628 0.0245883
O -47.5982 -81.7313 0.0242658
Si -48.1933 -83.2659 0.0244642
Si -46.582 -80.4401 0.0245895
O -49.1188 -83.3147 1.38797
O -47.0093 -84.4109 0.0244918
O -49.1188 -83.3147 4.11501
O -46.9365 -79.6213 1.38821
O -45.0061 -80.822 0.0241602
O -46.9367 -79.6211 4.11521
O 44.4144 83.5446 0.0299602
O 40.2611 85.6303 2.75805
Si 41.189 86.9897 2.75749
Si 39.7722 84.0617 2.75761
O 43.5229 84.0139 2.75698
Si 44.0415 85.576 2.75715
Si 42.5717 82.6742 2.75706
O 44.9635 85.6703 4.12062
O 42.803 86.6618 2.75733
O 44.9633 85.6704 1.39357
O 42.9666 81.8735 4.12031
O 40.979 82.9786 2.75755
O 42.9658 81.8739 1.39336
O 36.0099 87.5085 0.0279453
Si 36.8702 88.9117 0.0307574
Si 35.5985 85.9178 0.0307244
O 39.3476 86.0552 0.030067
Si 39.7892 87.6408 0.0304519
Si 38.4631 84.6706 0.0305437
O 40.7054 87.7802 1.39398
O 38.4985 88.664 0.0306397
O 40.7054 87.7804 4.12096
O 38.8964 83.8905 1.3941
O 36.8573 84.8958 0.0304417
O 38.8965 83.8903 4.12116
O 31.6722 89.1769 2.75791
Si 32.4626 90.6206 2.75762
Si 31.339 87.568 2.75773
O 35.0766 87.888 2.76112
Si 35.44 89.4933 2.75802
Si 34.261 86.4617 2.758
O 36.3483 89.678 4.1215
O 34.101 90.4524 2.75755
O 36.3483 89.677 1.39451
O 34.7316 85.7034 4.12158
O 32.6461 86.6084 2.75728
O 34.7325 85.7041 1.39452
Si 27.9769 92.1126 0.030717
Si 27.0043 89.0087 0.0307016
O 30.7215 89.5108 0.0304648
Si 31.0058 91.132 0.0305918
Si 29.9767 88.0463 0.0306959
O 31.904 91.3601 1.39415
O 29.6216 92.0246 0.0306209
O 31.904 91.3602 4.1211
O 30.4839 87.3122 1.39433
O 28.3566 88.1141 0.0303681
O 30.4844 87.312 4.12142
O -36.0153 -87.4711 0.020465
O -31.6777 -89.1397 2.75137
Si -32.4683 -90.5832 2.75117
Si -31.3444 -87.5308 2.75131
O -35.0822 -87.851 2.75472
Si -35.4459 -89.4562 2.75137
Si -34.2664 -86.4248 2.75131
O -36.3545 -89.6406 4.11474
O -34.1068 -90.4153 2.75118
O -36.3539 -89.6396 1.38768
O -34.7369 -85.6663 4.11474
O -32.6516 -86.5714 2.75105
O -34.7376 -85.6672 1.38776
O -27.2634 -90.5937 0.0242313
Si -27.9823 -92.0743 0.0245475
Si -27.0095 -88.9705 0.0245055
O -30.727 -89.473 0.0239201
Si -31.0114 -91.0942 0.0241496
Si -29.9821 -88.0086 0.0242973
O -31.9097 -91.3225 1.38758
O -29.627 -91.9866 0.0245104
O -31.9095 -91.3227 4.11462
O -30.4896 -87.2746 1.38779
O -28.362 -88.0761 0.0248388
O -30.4895 -87.2746 4.11478
O -22.7831 -91.83 2.75631
Si -23.4285 -93.344 2.75273
Si -22.6091 -90.1962 2.75265
O -26.2976 -90.8804 2.75164
Si -26.502 -92.5135 2.75162
Si -25.6254 -89.3811 2.75158
O -27.3881 -92.7855 4.11504
O -25.0756 -93.337 2.75212
O -27.3878 -92.7856 1.38798
O -26.1688 -88.6726 4.11474
O -24.0039 -89.3692 2.75291
O -26.1677 -88.673 1.38777
Si -18.8177 -94.3883 0.0265728
Si -18.1539 -91.2039 0.026627
O -21.8043 -92.0688 0.0215611
Si -21.9284 -93.71 0.0254885
Si -21.2065 -90.5383 0.0253497
O -22.8 -94.0246 1.38907
O -20.4632 -94.4623 0.0262215
O -22.8002 -94.0258 4.11614
O -21.7843 -89.858 1.38863
O -19.5876 -90.4465 0.0270367
O -21.7827 -89.8571 4.11566
O 18.2415 92.8804 0.0306955
Si 18.1482 91.24 0.0308118
O 13.6617 93.6712 2.76159
Si 14.1553 95.2413 2.75813
Si 13.6491 92.0282 2.75819
O 17.2523 93.0709 2.75801
Si 17.2956 94.7163 2.7579
Si 16.7306 91.513 2.75785
O 18.1507 95.0739 4.12139
O 15.7952 95.3958 2.75791
O 18.1507 95.0738 1.3944
O 17.3403 90.8612 4.1213
O 15.1182 91.342 2.75795
O 17.3402 90.8613 1.39432
O 9.04837 94.2338 0.0275559
Si 9.46422 95.8263 0.0310254
Si 9.11639 92.5922 0.030972
O 12.6643 93.8125 0.0272944
Si 12.6265 95.4579 0.0308488
Si 12.2197 92.2307 0.0308701
O 13.4629 95.8568 1.39445
O 11.0943 96.0622 0.0313046
O 13.4629 95.858 4.12146
O 12.8608 91.6106 1.39455
O 10.6178 91.9798 0.0310882
O 12.8607 91.6094 4.12157
O 4.41291 94.57 2.75825
Si 4.75007 96.181 2.75795
Si 4.56147 92.9337 2.758
O 8.04502 94.3257 2.76172
Si 7.92658 95.9673 2.75831
Si 7.67871 92.724 2.75828
O 8.74235 96.408 4.12166
O 6.36671 96.4961 2.75797
O 8.74228 96.4068 1.39471
O 8.34938 92.1351 4.12175
O 6.09091 92.3952 2.7578
O 8.3497 92.1362 1.39464
Si 0.0242156 96.3051 0.0307735
O 3.40644 94.6132 0.0307637
Si 3.20745 96.247 0.0309078
Si 3.11918 92.9955 0.0309554
O 4.00063 96.7263 1.39446
O 1.62354 96.6988 0.0308324
O 4.00066 96.7264 4.12144
O 3.81774 92.4404 1.39456
O 1.54933 92.5896 0.0305943
O 3.81812 92.4403 4.12162
O -9.05374 -94.1996 0.0258686
Si -9.12169 -92.558 0.0258717
O -4.41825 -94.5368 2.75355
Si -4.75563 -96.1478 2.75313
Si -4.56667 -92.9005 2.7532
O -8.05054 -94.2922 2.75277
Si -7.93227 -95.9339 2.75308
Si -7.68403 -92.6906 2.75288
O -8.74826 -96.3736 4.11656
O -6.37236 -96.4627 2.75322
O -8.74809 -96.3736 1.38951
O -8.35557 -92.1018 4.11594
O -6.09616 -92.3621 2.75392
O -8.35391 -92.1019 1.38895
O 0.228163 -94.6455 0.0267612
Si -0.0296349 -96.2711 0.0266258
Si -0.000406958 -93.0185 0.0267538
O -3.41162 -94.5798 0.0254544
Si -3.21285 -96.2137 0.0260883
Si -3.12425 -92.9621 0.0261283
O -4.00619 -96.693 1.38955
O -1.62887 -96.6652 0.026468
O -4.00591 -96.6932 4.11653
O -3.82349 -92.4072 1.38945
O -1.55449 -92.5558 0.0266752
O -3.82269 -92.4071 4.11648
O 4.87435 -94.5263 2.75902
Si 4.69668 -96.1626 2.75478
Si 4.56624 -92.9124 2.75477
O 1.23575 -94.639 2.75355
Si 1.51443 -96.2612 2.75367
Si 1.44335 -93.0092 2.75377
O 0.745615 -96.7789 4.11712
O 3.11865 -96.6345 2.754
O 0.745745 -96.7789 1.39013
O 0.718092 -92.4892 4.11729
O 2.99132 -92.5264 2.75381
O 0.718031 -92.4892 1.39029
Si 9.41204 -95.8227 0.0282037
O 5.88039 -94.4705 0.0234511
Si 6.23844 -96.077 0.0274976
Si 6.00781 -92.8324 0.0274152
O 5.49612 -96.6311 1.39124
O 7.85903 -96.3714 0.0278697
O 5.4959 -96.6325 4.11823
O 5.25832 -92.3492 1.39127
O 7.53031 -92.2744 0.0274368
O 5.25757 -92.3479 4.11831
O -9.51403 94.2101 0.0300496
Si -9.1267 92.6134 0.0303812
O -14.126 93.6351 2.75699
Si -14.1099 95.281 2.75716
Si -13.6608 92.0594 2.75721
O -10.516 94.1048 2.75765
Si -10.9528 95.6917 2.75734
Si -10.5625 92.4624 2.75743
O -10.2386 96.2824 4.12084
O -12.5859 95.9057 2.7573
O -10.2386 96.2824 1.3938
O -9.78979 92.0161 4.12094
O -12.0556 91.83 2.75745
O -9.78973 92.0162 1.39393
O -18.7041 92.8339 0.0298615
Si -18.7687 94.4785 0.03018
Si -18.1621 91.2829 0.0301273
O -15.1216 93.4805 0.0302454
Si -15.6357 95.0441 0.0301514
Si -15.0874 91.8378 0.0302094
O -14.9514 95.6694 1.3936
O -17.2773 95.1775 0.0302908
O -14.9516 95.6693 4.12062
O -14.2934 91.4301 1.3936
O -16.5475 91.1327 0.0307597