2688
 Atoms. Timestep: 76258
O 18.1379 3.38289 3.36344
Si 19.667 3.98631 3.37659
Si 16.5267 3.3346 3.06375
O 18.498 0.883921 3.96389
Si 20.1236 0.831593 3.6963
Si 16.9173 0.457155 3.85076
O 20.6708 0.0156137 5.04378
O 20.4179 2.48218 3.52571
O 20.5805 -0.0748872 2.38423
O 16.4602 -0.0836358 5.30136
O 16.1613 1.81416 3.4414
O 16.66 -0.606025 2.66923
O 16.8185 7.77845 1.3067
Si 18.1674 8.69871 1.09157
Si 15.2194 7.42956 1.38659
O 17.6299 5.52809 0.418487
Si 19.2443 5.70814 0.69187
Si 16.1804 4.76483 0.38286
O 19.8688 4.85956 1.97844
O 19.2097 7.38331 0.898783
O 19.8911 5.02446 42.026
O 16.1525 3.62514 1.52252
O 15.1622 5.90078 0.890687
O 15.8756 4.26222 41.5859
O 14.5622 11.8623 3.42084
Si 15.7256 13.0247 3.47374
Si 13.0813 11.2015 3.17113
O 15.8317 9.7782 3.80687
Si 17.3914 10.2983 3.75126
Si 14.5766 8.74867 4.04657
O 18.1206 9.74919 5.13925
O 17.0149 11.9401 3.61206
O 18.2148 9.63765 2.46503
O 14.4516 8.27508 5.58277
O 13.3358 9.67434 3.6085
O 14.6952 7.61809 2.90098
O 11.6084 15.3785 1.36163
Si 12.4754 16.7659 1.17937
Si 10.2757 14.4347 1.49178
O 13.2327 13.6426 0.560282
Si 14.6536 14.4424 0.793927
Si 12.206 12.3666 0.490222
O 15.5645 13.9227 2.08488
O 13.9559 15.9702 0.988199
O 15.5169 14.058 42.1298
O 12.6117 11.3032 1.63225
O 10.82 13.0073 0.991471
O 12.1307 11.8114 41.6846
O 7.91983 18.2027 3.48266
Si 8.50058 19.7406 3.54789
Si 6.83409 17.0002 3.22759
O 9.8986 16.8335 3.96185
Si 11.1272 17.9219 3.84902
Si 9.17511 15.3754 4.16209
O 12.0224 17.711 5.23402
O 10.1196 19.272 3.69507
O 12.1405 17.6331 2.56036
O 9.2321 14.8844 5.69638
O 7.67573 15.7101 3.68795
O 9.75906 14.3993 3.01893
O 3.75213 20.1926 1.52721
Si 3.98417 21.8052 1.2759
Si 2.93956 18.7703 1.59781
O 5.94884 19.2947 0.65975
Si 6.93141 20.5974 0.875536
Si 5.54866 17.71 0.560046
O 7.98497 20.4947 2.15904
O 5.6611 21.6962 1.08057
O 7.86345 20.5928 42.2021
O 6.37497 16.905 1.68592
O 4.03233 17.7055 1.09275
O 5.69069 17.2011 41.7435
O -0.808712 21.2117 3.54811
Si -0.898999 22.8525 3.64304
Si -1.318 19.6649 3.34051
O 1.5928 20.7905 3.96609
Si 2.25293 22.2975 3.92454
Si 1.50533 19.175 4.24158
O 3.1528 22.4727 5.31183
O 0.769095 23.1002 3.78617
O 3.29938 22.4743 2.64044
O 1.77661 18.792 5.78391
O -0.00743251 18.8518 3.80035
O 2.43364 18.5014 3.10574
O -5.3608 21.318 1.60696
Si -5.83886 22.8703 1.35435
Si -5.54217 19.6944 1.67074
O -2.98803 21.3911 0.705009
Si -2.6579 22.988 0.952559
Si -2.7303 19.7721 0.63496
O -1.68364 23.3323 2.25721
O -4.27127 23.4638 1.12877
O -1.78248 23.3961 42.3027
O -1.69982 19.3544 1.80434
O -4.13894 19.1593 1.1035
O -2.33962 19.35 41.8356
O -10.0199 20.3712 4.05173
Si -10.6721 21.8614 3.79918
Si -9.70061 18.7924 3.75339
O -7.50876 20.9906 4.12641
Si -7.56158 22.6288 4.03496
Si -6.86675 19.5061 4.38715
O -6.82991 23.1378 5.44018
O -9.23909 22.7533 3.86037
O -6.68332 23.2129 2.74797
O -6.48692 19.2183 5.92489
O -8.13818 18.5954 4.03775
O -5.8019 19.2602 3.20294
O -13.8984 19.1021 0.213423
Si -15.2605 19.8969 0.638166
Si -13.2591 16.2427 2.37023
O -12.1438 19.5352 1.27906
Si -12.3786 21.1623 1.14199
Si -11.1859 18.2147 1.17455
O -11.6514 21.9129 2.44706
O -14.0525 21.0466 0.977318
O -11.6727 21.8195 42.5019
O -9.98207 18.4295 2.21485
O -11.8705 16.8595 1.7489
O -10.7642 17.9879 42.3409
O -15.7907 14.7535 3.5449
Si -17.3463 15.2208 3.31948
Si -14.5151 13.7341 3.44993
O -14.5446 17.2671 3.47451
Si -15.9741 18.1319 3.22916
Si -13.7049 17.175 5.09265
O -15.97 19.2165 4.53364
O -17.1134 16.889 3.22849
O -16.0055 19.1558 1.92012
O -14.2571 16.3343 6.4324
O -13.4264 14.6784 2.73448
O -12.7488 16.5199 3.93022
O -17.3868 10.344 0.359972
Si -19.0176 10.5456 0.390871
Si -15.9377 9.62173 0.0907256
O -16.5874 12.8105 0.420975
Si -18.0248 13.5844 0.612414
Si -15.0371 12.4051 0.766737
O -18.0704 14.4931 2.00671
O -19.0211 12.2274 0.5192
O -18.0943 14.6396 42.0376
O -14.7313 12.5976 2.33479
O -14.9416 10.8423 0.409898
O -14.1797 13.215 42.3638
O -18.2234 5.84141 3.69047
Si -19.8485 5.70413 3.45311
Si -16.6415 5.40692 3.71658
O -17.9034 8.25144 2.80659
Si -19.4162 8.85019 3.06323
Si -16.2655 8.24499 2.78189
O -19.5763 9.89726 4.34498
O -20.16 7.3509 3.26994
O -19.6847 9.74021 1.68353
O -15.7171 9.25247 3.91567
O -15.8898 6.75806 3.26988
O -15.7606 8.53916 1.27545
O -18.1935 1.1642 0.506944
Si -19.7864 0.754291 0.524516
Si -16.576 1.01181 0.272214
O -18.3027 3.65339 0.795244
Si -19.9237 3.93908 0.771747
Si -16.7008 3.92612 1.03294
O -20.3017 4.76936 2.15736
O -20.3876 2.32315 0.652416
O -20.3516 4.89438 42.1876
O -16.3494 4.32184 2.55766
O -16.0676 2.49176 0.658195
O -16.2507 4.94127 -0.140455
O -17.4057 -3.41794 3.77796
Si -18.8867 -4.10042 3.55019
Si -15.7705 -3.29982 3.79132
O -17.9306 -1.03511 2.97506
Si -19.5654 -1.00321 3.17694
Si -16.3882 -0.480828 2.92093
O -20.1015 -0.11288 4.47039
O -19.7479 -2.66717 3.3591
O -20.1235 -0.24587 1.80749
O -16.1752 0.618845 4.08254
O -15.5241 -1.77213 3.34524
O -16.0391 0.0153018 1.42401
O -15.806 -7.8285 0.620348
Si -17.1804 -8.73223 0.634899
Si -14.2261 -7.43884 0.40201
O -16.7445 -5.49617 0.846445
Si -18.3649 -5.77836 0.867329
Si -15.3228 -4.71904 1.11009
O -18.9925 -5.13864 2.26084
O -18.2674 -7.45395 0.752165
O -19.0913 -5.0141 42.2914
O -15.1369 -4.23386 2.63816
O -14.2461 -5.86588 0.756264
O -15.2266 -3.59743 -0.0489911
O -13.587 -11.8951 3.83105
Si -14.7769 -13.0191 3.65077
Si -12.0745 -11.2616 3.88492
O -14.8508 -9.79752 3.10434
Si -16.4068 -10.3023 3.29643
Si -13.5714 -8.77211 3.06564
O -17.2023 -9.62956 4.58648
O -16.0508 -11.9361 3.47532
O -17.1785 -9.77883 1.92317
O -13.7324 -7.65974 4.22457
O -12.3374 -9.72358 3.47889
O -13.3962 -8.18402 1.57052
O -10.7028 -15.583 0.453432
Si -11.7112 -16.8674 0.673904
Si -9.31481 -14.7077 0.441147
O -12.2994 -13.6793 1.00576
Si -13.7567 -14.4427 0.973205
Si -11.2015 -12.476 1.2073
O -14.5642 -14.0394 2.36165
O -13.1406 -16.0009 0.840578
O -14.6778 -13.9425 42.3947
O -11.1654 -11.9189 2.72297
O -9.82294 -13.2299 0.839149
O -11.4767 -11.3919 0.0408106
O -7.3045 -18.7976 3.4958
Si -8.10624 -20.2238 3.58508
Si -6.07037 -17.7554 3.75066
O -9.17835 -17.118 3.36394
Si -10.4861 -18.1177 3.35845
Si -8.26019 -15.7769 3.12052
O -11.478 -17.7751 4.64223
O -9.65178 -19.5703 3.49172
O -11.3393 -17.8377 1.9664
O -8.66164 -14.7455 4.29876
O -6.77863 -16.345 3.41555
O -8.32326 -15.2145 1.60883
O -3.80572 -21.7559 1.59536
Si -4.22283 -23.2681 1.10159
Si -2.64804 -20.9595 2.4173
O -5.44342 -20.1755 0.989844
Si -6.6811 -21.2787 0.93642
Si -4.84092 -18.6425 1.08451
O -7.64944 -21.1191 2.27105
O -5.79636 -22.701 0.947305
O -7.67269 -21.0527 42.3262
O -4.96926 -18.0853 2.60503
O -3.33018 -18.5285 0.486787
O -5.62752 -17.7714 -0.0321269
O 0.143755 -21.7702 3.84979
Si 0.608838 -23.3617 3.89899
Si 0.443741 -20.1505 3.75655
O -2.08585 -22.2467 3.24007
Si -2.52975 -23.7513 3.73331
Si -2.21665 -19.4531 5.08639
O -3.47894 -23.8693 5.08681
O -0.894074 -24.1013 3.88675
O -3.5258 -24.0326 2.41762
O -1.90009 -20.3214 6.44913
O -0.780283 -19.256 4.35175
O -2.94434 -20.0215 3.72323
O 4.92261 -21.1557 1.50544
Si 5.50967 -22.6939 1.47596
Si 4.85965 -19.529 1.73259
O 2.45244 -21.5867 1.33953
Si 2.37622 -23.2211 1.24954
Si 1.95664 -20.0484 1.09039
O 1.51635 -23.7382 2.56503
O 4.0335 -23.485 1.33789
O 1.56821 -23.696 -0.121218
O 0.847211 -19.7467 2.23572
O 3.30272 -19.227 1.43232
O 1.57145 -19.8253 42.243
O 9.39488 -19.9092 3.94429
Si 10.2325 -21.3157 3.86716
Si 9.11827 -18.3178 3.69163
O 7.02955 -20.6605 4.38059
Si 7.21025 -22.2835 4.15654
Si 6.31919 -19.1802 4.41253
O 6.53549 -22.9232 5.531
O 8.8804 -22.3099 3.97242
O 6.37864 -22.9136 2.86843
O 5.74557 -18.8705 5.89154
O 7.55062 -18.2029 4.05381
O 5.21902 -19.0676 3.23739
O 13.7254 -18.3785 0.524264
Si 14.8263 -19.4938 1.0233
Si 12.5216 -15.8619 2.36445
O 11.5287 -18.9966 1.12359
Si 11.8654 -20.6192 1.17824
Si 10.5015 -17.7103 1.02012
O 11.164 -21.3632 2.49248
O 13.5411 -20.5677 1.17496
O 11.2402 -21.3709 -0.159792
O 9.35016 -17.9501 2.13439
O 11.1592 -16.3517 1.62891
O 9.96844 -17.5399 42.203
O 15.7183 -14.9938 3.634
Si 17.3364 -15.3556 3.583
Si 14.4522 -13.9439 3.74964
O 15.015 -17.1337 4.21992
Si 16.0991 -18.269 3.731
Si 13.6141 -16.9816 5.03416
O 15.8388 -19.273 5.04592
O 17.2249 -17.0287 3.58817
O 15.7225 -19.1477 2.37559
O 13.4284 -16.0121 6.33764
O 13.0679 -14.5386 3.13242
O 12.6567 -16.7823 3.72369
O 17.4895 -10.5305 0.630587
Si 19.1233 -10.7302 0.65443
Si 16.0341 -9.81597 0.36541
O 16.6857 -12.8808 0.824231
Si 18.0799 -13.7384 0.895044
Si 15.0975 -12.5864 1.07836
O 18.0995 -14.6773 2.2667
O 19.1083 -12.4084 0.797236
O 18.1057 -14.7461 42.2884
O 14.7277 -12.7997 2.63686
O 15.0189 -11.0211 0.704276
O 14.3001 -13.4214 -0.0600553
O 18.4419 -5.94672 3.96068
Si 20.0683 -5.89187 3.6967
Si 16.8631 -5.51491 3.84862
O 18.0495 -8.41873 3.05304
Si 19.5593 -9.02395 3.30985
Si 16.4117 -8.37827 3.02243
O 19.7178 -10.0608 4.5966
O 20.3349 -7.54342 3.51314
O 19.8092 -9.92489 1.93544
O 15.8185 -9.33198 4.17977
O 16.0822 -6.86062 3.44287
O 15.8845 -8.70879 1.53131
O 18.6174 -1.14713 0.833966
Si 20.2365 -0.929761 1.00699
Si 17.0134 -1.02111 1.15157
O 18.5899 -3.91614 0.832806
Si 20.2081 -4.13591 1.00809
Si 16.9847 -4.03337 1.14967
O 20.5393 -4.98968 2.38794
O 20.7341 -2.5376 1.00652
O 20.6281 -5.0901 42.4153
O 16.6205 -4.44869 2.66539
O 16.4677 -2.52202 0.959735
O 16.4166 -4.96321 -0.0393757
O 18.1376 3.38307 8.69759
Si 19.6665 3.98736 8.71451
Si 16.5254 3.33649 8.40213
O 18.4976 0.885535 9.30162
Si 20.1234 0.832583 9.03458
Si 16.9167 0.458922 9.1892
O 20.6707 0.0165614 10.382
O 20.4175 2.48325 8.86387
O 20.5803 -0.0742429 7.72274
O 16.4602 -0.082381 10.6399
O 16.1605 1.81599 8.78033
O 16.6591 -0.604547 8.00793
O 16.8199 7.77677 6.63685
Si 18.1677 8.69942 6.42762
Si 15.2208 7.43076 6.72149
O 17.6296 5.527 5.75603
Si 19.2441 5.70847 6.02933
Si 16.1793 4.76477 5.71983
O 19.8687 4.86141 7.31688
O 19.2099 7.38391 6.2343
O 19.8918 5.02392 4.65703
O 16.1485 3.62704 6.8615
O 15.1615 5.90278 6.22358
O 15.8751 4.26024 4.21608
O 14.5645 11.861 8.77121
Si 15.729 13.0224 8.81331
Si 13.0874 11.1966 8.50915
O 15.8341 9.77688 9.1533
Si 17.3937 10.2959 9.09043
Si 14.5808 8.74359 9.38519
O 18.123 9.74637 10.4782
O 17.0181 11.9376 8.95042
O 18.2153 9.6349 7.80327
O 14.4512 8.26915 10.9206
O 13.3411 9.66878 8.94392
O 14.7022 7.61499 8.23826
O 11.6043 15.381 6.72549
Si 12.4753 16.7645 6.52482
Si 10.2737 14.431 6.84093
O 13.2317 13.6466 5.90386
Si 14.6545 14.4425 6.13564
Si 12.2085 12.3687 5.83351
O 15.5672 13.9186 7.42352
O 13.956 15.9693 6.33507
O 15.5131 14.0589 4.76088
O 12.6241 11.3023 6.96891
O 10.8239 13.0037 6.34646
O 12.1293 11.8193 4.31852
O 7.90783 18.2053 8.78408
Si 8.48798 19.7423 8.88305
Si 6.80982 17.0059 8.56716
O 9.88824 16.8363 9.28056
Si 11.1177 17.9261 9.18602
Si 9.15669 15.3845 9.5004
O 12.0136 17.7157 10.5708
O 10.1073 19.2749 9.03431
O 12.1348 17.6406 7.89927
O 9.22542 14.899 11.0363
O 7.65397 15.7192 9.03527
O 9.7363 14.4003 8.36117
O 3.76889 20.1898 6.79019
Si 3.98236 21.8093 6.59278
Si 2.93882 18.7828 6.90141
O 5.95535 19.2846 5.98633
Si 6.92868 20.5959 6.20423
Si 5.5435 17.7009 5.88332
O 7.97219 20.5031 7.49713
O 5.65926 21.6987 6.39268
O 7.87459 20.5939 4.8332
O 6.3374 16.8909 7.02993
O 4.01471 17.7108 6.37756
O 5.70467 17.1822 4.36492
O -0.777494 21.2252 8.99897
Si -0.860855 22.8668 8.99054
Si -1.23727 19.6846 8.67545
O 1.62348 20.7977 9.36501
Si 2.28554 22.2998 9.26753
Si 1.57229 19.1732 9.58111
O 3.18399 22.4727 10.6556
O 0.807725 23.1098 9.12126
O 3.3248 22.4618 7.97685
O 1.81626 18.7579 11.1186
O 0.0680162 18.8571 9.11282
O 2.49836 18.5256 8.43115
O -5.42014 21.311 7.13347
Si -5.8353 22.8644 6.74908
Si -5.51876 19.6735 7.12731
O -3.02089 21.4118 6.0792
Si -2.65573 22.9966 6.32084
Si -2.72535 19.8052 6.02397
O -1.64007 23.3268 7.59654
O -4.26708 23.4609 6.54501
O -1.81292 23.3766 4.93377
O -1.60538 19.4492 7.12578
O -4.07551 19.1736 6.62646
O -2.40541 19.3812 4.50003
O -10.1521 20.2049 8.84897
Si -10.7295 21.7265 9.11369
Si -9.91325 18.5939 9.08363
O -7.5777 20.9148 9.31339
Si -7.63337 22.5573 9.36804
Si -7.07631 19.4069 9.72012
O -6.89821 23.0839 10.7643
O -9.31634 22.6385 9.23549
O -6.76644 23.194 8.09531
O -6.65578 19.2541 11.27
O -8.34655 18.4638 9.4233
O -5.95102 19.136 8.58881
O -13.9818 18.7468 5.37738
Si -15.146 19.7342 5.93306
Si -13.2741 16.4263 7.81894
O -11.4767 19.8268 6.45617
Si -12.3374 21.2353 6.40665
Si -11.163 18.216 6.35979
O -11.7448 21.9428 7.80179
O -13.9807 20.9224 6.24532
O -11.6769 22.0267 5.10817
O -10.2733 17.9099 7.66824
O -12.5156 17.3119 6.42644
O -10.4729 17.9749 4.91522
O -15.7321 14.7623 8.89318
Si -17.2935 15.2492 8.68368
Si -14.3792 13.8244 8.8475
O -14.484 17.4339 8.90155
Si -15.961 18.1881 8.6335
Si -13.5065 17.6393 10.3998
O -16.0129 19.3141 9.90288
O -17.0712 16.9211 8.63263
O -15.9384 19.1223 7.25658
O -13.8226 16.6001 11.5697
O -13.2884 14.8858 8.31753
O -12.54 17.0698 9.18241
O -17.3679 10.3883 5.76162
Si -19.0014 10.5764 5.74747
Si -15.9131 9.69283 5.45549
O -16.5628 12.7795 5.99938
Si -17.9872 13.608 5.99432
Si -14.9585 12.4608 6.1677
O -18.0307 14.5658 7.35502
O -18.9961 12.258 5.89398
O -18.0876 14.6205 4.68093
O -14.4541 12.7167 7.67737
O -14.8981 10.8875 5.82474
O -14.2076 13.2134 4.94799
O -18.2367 5.82921 9.0299
Si -19.857 5.68672 8.7807
Si -16.6638 5.37282 9.03557
O -17.9168 8.23003 8.10756
Si -19.428 8.83019 8.38107
Si -16.2784 8.19932 8.07678
O -19.6051 9.85363 9.67813
O -20.1715 7.32978 8.57761
O -19.6854 9.75062 7.01884
O -15.7082 9.15496 9.24205
O -15.9092 6.70118 8.5315
O -15.7576 8.55362 6.5898
O -18.1942 1.14958 5.8136
Si -19.7869 0.741285 5.85592
Si -16.5746 0.985992 5.60227
O -18.309 3.65111 6.05439
Si -19.9299 3.92504 6.09538
Si -16.7148 3.89834 6.35446
O -20.2998 4.73551 7.49398
O -20.391 2.30897 5.97799
O -20.3564 4.8979 4.81647
O -16.409 4.26071 7.89613
O -16.073 2.46989 5.97829
O -16.2441 4.93839 5.21108
O -17.403 -3.41335 9.11531
Si -18.8868 -4.09389 8.89261
Si -15.7674 -3.28688 9.13682
O -17.9305 -1.03069 8.33054
Si -19.5653 -0.99553 8.52357
Si -16.3924 -0.466775 8.27438
O -20.0982 -0.0934765 9.81079
O -19.748 -2.65932 8.70946
O -20.1201 -0.249678 7.14674
O -16.1933 0.649083 9.42342
O -15.5257 -1.75236 8.7114
O -16.0429 0.0056675 6.76974
O -15.8079 -7.82348 5.96981
Si -17.1821 -8.72764 5.9759
Si -14.2299 -7.43039 5.74348
O -16.7431 -5.49435 6.21403
Si -18.365 -5.77276 6.21105
Si -15.3218 -4.70795 6.45427
O -18.9983 -5.12751 7.59977
O -18.2684 -7.44866 6.0952
O -19.0891 -5.01434 4.92296
O -15.1247 -4.20624 7.97603
O -14.2473 -5.85789 6.10132
O -15.2293 -3.59681 5.28486
O -13.5877 -11.8967 9.17044
Si -14.776 -13.0214 8.98779
Si -12.0742 -11.2665 9.221
O -14.8503 -9.79922 8.43721
Si -16.406 -10.3051 8.63182
Si -13.5684 -8.77652 8.39873
O -17.201 -9.63676 9.92422
O -16.0499 -11.9389 8.80912
O -17.1801 -9.77791 7.2613
O -13.7226 -7.66803 9.56212
O -12.3346 -9.73011 8.80741
O -13.3963 -8.18056 6.90641
O -10.7009 -15.5854 5.78952
Si -11.7102 -16.8687 6.01169
Si -9.31286 -14.71 5.77882
O -12.2995 -13.6803 6.33145
Si -13.7563 -14.4446 6.30955
Si -11.201 -12.4797 6.54354
O -14.5607 -14.0425 7.69995
O -13.1398 -16.0026 6.17762
O -14.6789 -13.9428 5.02537
O -11.1668 -11.9302 8.06179
O -9.82194 -13.2324 6.17544
O -11.4755 -11.3916 5.38068
O -7.30432 -18.7972 8.83389
Si -8.10647 -20.2233 8.92376
Si -6.07078 -17.7545 9.08963
O -9.17846 -17.1178 8.70311
Si -10.4864 -18.1171 8.6977
Si -8.2611 -15.7761 8.46052
O -11.4789 -17.7734 9.98092
O -9.65205 -19.5697 8.83128
O -11.3389 -17.8381 7.30495
O -8.66474 -14.7439 9.63736
O -6.77957 -16.3438 8.75676
O -8.32256 -15.2155 6.94809
O -3.80536 -21.7556 6.93377
Si -4.22285 -23.2677 6.44014
Si -2.64753 -20.9594 7.75574
O -5.44373 -20.1747 6.32929
Si -6.68119 -21.2782 6.27523
Si -4.84124 -18.6417 6.42326
O -7.65001 -21.1185 7.60952
O -5.7964 -22.7005 6.28627
O -7.67253 -21.0527 4.95729
O -4.96981 -18.0832 7.94341
O -3.33045 -18.5282 5.82538
O -5.62752 -17.7711 5.30587
O 0.143909 -21.7702 9.18803
Si 0.608961 -23.3617 9.23739
Si 0.444157 -20.1506 9.09503
O -2.08549 -22.2467 8.57848
Si -2.52955 -23.7513 9.07167
Si -2.2161 -19.4532 10.4249
O -3.47855 -23.8696 10.4253
O -0.893918 -24.1013 9.22502
O -3.5257 -24.0324 7.75601
O -1.90016 -20.3215 11.7878
O -0.779636 -19.2561 9.69054
O -2.94367 -20.0212 9.06155
O 4.92257 -21.1554 6.84284
Si 5.50963 -22.6936 6.8142
Si 4.8596 -19.5289 7.07082
O 2.45204 -21.5863 6.67814
Si 2.37615 -23.2207 6.58792
Si 1.95653 -20.0479 6.42864
O 1.51642 -23.7381 7.90337
O 4.03342 -23.4846 6.67617
O 1.5681 -23.6957 5.21727
O 0.847412 -19.7463 7.57428
O 3.30274 -19.2266 6.7704
O 1.57098 -19.8249 4.87397
O 9.39493 -19.9092 9.28311
Si 10.2324 -21.3158 9.20562
Si 9.11809 -18.3179 9.03003
O 7.02934 -20.6605 9.71947
Si 7.21009 -22.2835 9.49502
Si 6.31896 -19.1803 9.75094
O 6.53537 -22.9233 10.8694
O 8.88025 -22.31 9.31091
O 6.37838 -22.9133 8.20681
O 5.74527 -18.8705 11.2299
O 7.5504 -18.203 9.39207
O 5.21878 -19.0679 8.57579
O 13.7255 -18.3783 5.86294
Si 14.8263 -19.4937 6.36184
Si 12.5215 -15.8617 7.70293
O 11.5288 -18.9964 6.46199
Si 11.8654 -20.619 6.51675
Si 10.5015 -17.7102 6.35862
O 11.1638 -21.3631 7.83084
O 13.541 -20.5676 6.51359
O 11.2402 -21.3706 5.17868
O 9.3501 -17.9503 7.47277
O 11.1592 -16.3515 6.9674
O 9.96859 -17.5398 4.83409
O 15.7184 -14.9936 8.97191
Si 17.3365 -15.3555 8.9213
Si 14.4523 -13.9438 9.08793
O 15.0149 -17.1338 9.55818
Si 16.0992 -18.2689 9.06941
Si 13.614 -16.9818 10.3725
O 15.8389 -19.273 10.3843
O 17.225 -17.0286 8.92656
O 15.7226 -19.1476 7.71397
O 13.4285 -16.0124 11.6761
O 13.0679 -14.5384 8.47084
O 12.6565 -16.7822 9.06217
O 17.4896 -10.5305 5.96802
Si 19.1234 -10.73 5.99261
Si 16.0343 -9.81575 5.70356
O 16.6857 -12.8807 6.16265
Si 18.0799 -13.7382 6.23337
Si 15.0975 -12.5861 6.41671
O 18.0997 -14.677 7.60512
O 19.1084 -12.4082 6.13537
O 18.1057 -14.7461 4.91947
O 14.7276 -12.7995 7.9752
O 15.019 -11.0209 6.04243
O 14.3 -13.4212 5.27837
O 18.4417 -5.94726 9.29907
Si 20.0681 -5.89224 9.0353
Si 16.8629 -5.51561 9.18726
O 18.0494 -8.41888 8.3918
Si 19.5591 -9.02424 8.64842
Si 16.4117 -8.37884 8.36101
O 19.7174 -10.0613 9.93505
O 20.3348 -7.54379 8.85193
O 19.8091 -9.92491 7.27387
O 15.8187 -9.33281 9.51822
O 16.0819 -6.86137 8.78183
O 15.8847 -8.70893 6.86977
O 18.6172 -1.14754 6.17366
Si 20.2364 -0.929972 6.346
Si 17.0132 -1.02123 6.49088
O 18.5898 -3.91624 6.1719
Si 20.208 -4.13616 6.34681
Si 16.9846 -4.03361 6.48851
O 20.5393 -4.99035 7.72639
O 20.734 -2.53783 6.34575
O 20.6282 -5.08996 5.04635
O 16.6199 -4.44961 8.00392
O 16.4674 -2.52219 6.29959
O 16.4165 -4.96276 5.29885
O 18.1379 3.38289 14.0403
Si 19.6671 3.98632 14.0534
Si 16.5267 3.33458 13.7406
O 18.498 0.883921 14.6407
Si 20.1237 0.83159 14.3731
Si 16.9173 0.457148 14.5276
O 20.6709 0.015614 15.7206
O 20.4179 2.48218 14.2026
O 20.5805 -0.0749031 13.0611
O 16.4602 -0.0836313 15.9782
O 16.1613 1.81415 14.1182
O 16.6601 -0.606032 13.3461
O 16.8185 7.77845 11.9835
Si 18.1674 8.6987 11.7684
Si 15.2194 7.42956 12.0634
O 17.6299 5.52808 11.0953
Si 19.2443 5.70814 11.3687
Si 16.1804 4.76483 11.0597
O 19.8688 4.85956 12.6553
O 19.2097 7.3833 11.5756
O 19.8911 5.02447 9.99545
O 16.1526 3.62515 12.1994
O 15.1622 5.90078 11.5675
O 15.8756 4.26223 9.5554
O 14.5622 11.8623 14.0977
Si 15.7256 13.0247 14.1506
Si 13.0813 11.2015 13.848
O 15.8317 9.77819 14.4837
Si 17.3914 10.2983 14.4281
Si 14.5766 8.74865 14.7234
O 18.1206 9.74918 15.8161
O 17.0149 11.9401 14.2889
O 18.2148 9.63765 13.1419
O 14.4517 8.27506 16.2596
O 13.3358 9.67433 14.2853
O 14.6952 7.61808 13.5778
O 11.6084 15.3785 12.0385
Si 12.4754 16.7659 11.8562
Si 10.2757 14.4346 12.1686
O 13.2327 13.6425 11.2371
Si 14.6536 14.4424 11.4708
Si 12.206 12.3666 11.1671
O 15.5645 13.9227 12.7617
O 13.9559 15.9702 11.665
O 15.5169 14.058 10.0993
O 12.6117 11.3031 12.3091
O 10.82 13.0073 11.6683
O 12.1307 11.8114 9.65411
O 7.91984 18.2027 14.1595
Si 8.5006 19.7406 14.2247
Si 6.83412 17.0002 13.9044
O 9.89861 16.8335 14.6387
Si 11.1272 17.9219 14.5259
Si 9.17512 15.3754 14.8389
O 12.0225 17.711 15.9109
O 10.1196 19.2719 14.3719
O 12.1405 17.633 13.2372
O 9.2321 14.8844 16.3732
O 7.67576 15.7101 14.3648
O 9.75909 14.3993 13.6958
O 3.75214 20.1926 12.204
Si 3.98419 21.8052 11.9527
Si 2.93958 18.7703 12.2746
O 5.94886 19.2947 11.3366
Si 6.93142 20.5974 11.5524
Si 5.54867 17.71 11.2369
O 7.98498 20.4946 12.8359
O 5.66112 21.6962 11.7574
O 7.86346 20.5928 10.1715
O 6.37499 16.905 12.3628
O 4.03234 17.7055 11.7696
O 5.69069 17.2011 9.71295
O -0.808693 21.2116 14.2249
Si -0.898991 22.8525 14.3199
Si -1.31799 19.6648 14.0174
O 1.59281 20.7905 14.6429
Si 2.25294 22.2975 14.6014
Si 1.50535 19.175 14.9184
O 3.15282 22.4727 15.9887
O 0.769123 23.1002 14.463
O 3.29939 22.4743 13.3173
O 1.77662 18.7919 16.4607
O -0.00741318 18.8518 14.4772
O 2.43365 18.5014 13.7826
O -5.36078 21.3179 12.2838
Si -5.83885 22.8703 12.0312
Si -5.54216 19.6944 12.3476
O -2.98802 21.3911 11.3819
Si -2.65789 22.988 11.6294
Si -2.7303 19.7721 11.3118
O -1.68363 23.3322 12.9341
O -4.27127 23.4638 11.8056
O -1.78247 23.3961 10.2721
O -1.6998 19.3544 12.4812
O -4.13893 19.1593 11.7803
O -2.3396 19.35 9.80507
O -10.0199 20.3712 14.7286
Si -10.6721 21.8614 14.476
Si -9.7006 18.7924 14.4302
O -7.50877 20.9906 14.8033
Si -7.56158 22.6288 14.7118
Si -6.86673 19.5061 15.064
O -6.82989 23.1377 16.117
O -9.23908 22.7533 14.5372
O -6.68331 23.2129 13.4248
O -6.4869 19.2183 16.6017
O -8.13817 18.5954 14.7146
O -5.80187 19.2602 13.8798
O -13.8985 19.1021 10.8903
Si -15.2604 19.8969 11.315
Si -13.2591 16.2427 13.0471
O -12.1438 19.5352 11.9559
Si -12.3786 21.1623 11.8188
Si -11.1859 18.2147 11.8514
O -11.6514 21.9128 13.1239
O -14.0525 21.0466 11.6542
O -11.6727 21.8195 10.4714
O -9.98205 18.4295 12.8917
O -11.8705 16.8595 12.4257
O -10.7641 17.9879 10.3104
O -15.7907 14.7535 14.2217
Si -17.3463 15.2208 13.9963
Si -14.5151 13.7341 14.1268
O -14.5445 17.2671 14.1513
Si -15.9741 18.1318 13.906
Si -13.705 17.1749 15.7695
O -15.97 19.2165 15.2105
O -17.1134 16.889 13.9053
O -16.0055 19.1558 12.597
O -14.2571 16.3343 17.1092
O -13.4264 14.6784 13.4113
O -12.7488 16.5199 14.6071
O -17.3868 10.344 11.0368
Si -19.0176 10.5456 11.0677
Si -15.9377 9.62172 10.7676
O -16.5874 12.8105 11.0978
Si -18.0248 13.5844 11.2893
Si -15.0371 12.4051 11.4436
O -18.0704 14.4931 12.6836
O -19.0211 12.2274 11.1961
O -18.0943 14.6396 10.0071
O -14.7313 12.5976 13.0116
O -14.9415 10.8423 11.0867
O -14.1797 13.215 10.3333
O -18.2234 5.84139 14.3673
Si -19.8485 5.70411 14.13
Si -16.6415 5.40692 14.3934
O -17.9034 8.25144 13.4834
Si -19.4161 8.85018 13.7401
Si -16.2655 8.24499 13.4587
O -19.5763 9.89726 15.0218
O -20.16 7.35089 13.9468
O -19.6848 9.74021 12.3604
O -15.7171 9.25245 14.5925
O -15.8898 6.75805 13.9467
O -15.7606 8.53917 11.9523
O -18.1935 1.16419 11.1838
Si -19.7864 0.754289 11.2014
Si -16.576 1.01181 10.9491
O -18.3027 3.65339 11.4721
Si -19.9237 3.93908 11.4486
Si -16.7008 3.92611 11.7098
O -20.3017 4.76936 12.8342
O -20.3876 2.32315 11.3293
O -20.3516 4.89438 10.157
O -16.3494 4.32184 13.2345
O -16.0676 2.49176 11.335
O -16.2507 4.94127 10.5364
O -17.4057 -3.41794 14.4548
Si -18.8867 -4.10042 14.227
Si -15.7705 -3.29982 14.4682
O -17.9306 -1.03512 13.6519
Si -19.5654 -1.00322 13.8538
Si -16.3882 -0.48083 13.5978
O -20.1015 -0.112887 15.1472
O -19.7479 -2.66719 14.0359
O -20.1235 -0.245869 12.4843
O -16.1751 0.618831 14.7594
O -15.5241 -1.77214 14.0221
O -16.0391 0.0153026 12.1008
O -15.806 -7.82851 11.2972
Si -17.1804 -8.73223 11.3117
Si -14.2261 -7.43884 11.0789
O -16.7445 -5.49616 11.5233
Si -18.3649 -5.77836 11.5442
Si -15.3228 -4.71903 11.7869
O -18.9926 -5.13865 12.9377
O -18.2674 -7.45395 11.429
O -19.0913 -5.0141 10.2608
O -15.1369 -4.23388 13.315
O -14.2461 -5.86587 11.4331
O -15.2266 -3.59744 10.6278
O -13.587 -11.8951 14.5079
Si -14.7769 -13.0191 14.3276
Si -12.0745 -11.2616 14.5618
O -14.8508 -9.79752 13.7812
Si -16.4068 -10.3023 13.9733
Si -13.5714 -8.77211 13.7425
O -17.2023 -9.62956 15.2633
O -16.0509 -11.9361 14.1522
O -17.1785 -9.77883 12.6
O -13.7324 -7.65973 14.9014
O -12.3374 -9.72358 14.1557
O -13.3962 -8.18403 12.2474
O -10.7028 -15.5831 11.1303
Si -11.7112 -16.8674 11.3507
Si -9.31483 -14.7077 11.118
O -12.2994 -13.6793 11.6826
Si -13.7567 -14.4427 11.65
Si -11.2015 -12.476 11.8841
O -14.5642 -14.0394 13.0385
O -13.1406 -16.0009 11.5174
O -14.6778 -13.9425 10.3641
O -11.1654 -11.9189 13.3998
O -9.82295 -13.2299 11.516
O -11.4767 -11.3919 10.7176
O -7.3045 -18.7976 14.1726
Si -8.10624 -20.2238 14.2619
Si -6.07038 -17.7554 14.4275
O -9.17836 -17.118 14.0408
Si -10.4861 -18.1177 14.0353
Si -8.26019 -15.7769 13.7974
O -11.4781 -17.7751 15.3191
O -9.65178 -19.5703 14.1686
O -11.3393 -17.8377 12.6432
O -8.66165 -14.7455 14.9756
O -6.77864 -16.345 14.0924
O -8.32329 -15.2145 12.2857
O -3.80572 -21.7559 12.2722
Si -4.22283 -23.2681 11.7784
Si -2.64803 -20.9595 13.0941
O -5.44342 -20.1755 11.6667
Si -6.6811 -21.2787 11.6133
Si -4.84092 -18.6425 11.7614
O -7.64943 -21.1191 12.9479
O -5.79637 -22.701 11.6241
O -7.67268 -21.0527 10.2956
O -4.96926 -18.0853 13.2819
O -3.33018 -18.5285 11.1636
O -5.62752 -17.7714 10.6447
O 0.143758 -21.7702 14.5266
Si 0.608832 -23.3617 14.5758
Si 0.443728 -20.1505 14.4334
O -2.08585 -22.2467 13.9169
Si -2.52975 -23.7513 14.4102
Si -2.21666 -19.4531 15.7632
O -3.47895 -23.8693 15.7637
O -0.894087 -24.1013 14.5636
O -3.5258 -24.0326 13.0945
O -1.90011 -20.3214 17.126
O -0.780291 -19.256 15.0286
O -2.94434 -20.0215 14.4001
O 4.92262 -21.1557 12.1823
Si 5.50967 -22.6939 12.1528
Si 4.85964 -19.529 12.4094
O 2.45243 -21.5867 12.0164
Si 2.37621 -23.2211 11.9264
Si 1.95663 -20.0484 11.7672
O 1.51635 -23.7382 13.2419
O 4.0335 -23.485 12.0147
O 1.56821 -23.696 10.5556
O 0.847206 -19.7467 12.9126
O 3.30271 -19.2269 12.1091
O 1.57145 -19.8254 10.2125
O 9.39488 -19.9091 14.6211
Si 10.2325 -21.3157 14.544
Si 9.11826 -18.3178 14.3685
O 7.02954 -20.6605 15.0574
Si 7.21024 -22.2835 14.8334
Si 6.31919 -19.1802 15.0894
O 6.53549 -22.9232 16.2079
O 8.88041 -22.3099 14.6493
O 6.37864 -22.9136 13.5453
O 5.74556 -18.8705 16.5684
O 7.55062 -18.2029 14.7306
O 5.21902 -19.0676 13.9142
O 13.7254 -18.3785 11.2011
Si 14.8263 -19.4938 11.7001
Si 12.5216 -15.8619 13.0413
O 11.5287 -18.9966 11.8004
Si 11.8654 -20.6192 11.8551
Si 10.5015 -17.7103 11.697
O 11.164 -21.3632 13.1693
O 13.5411 -20.5677 11.8518
O 11.2402 -21.3709 10.517
O 9.35016 -17.9501 12.8112
O 11.1592 -16.3517 12.3057
O 9.96843 -17.5399 10.1725
O 15.7183 -14.9938 14.3108
Si 17.3364 -15.3556 14.2598
Si 14.4522 -13.9439 14.4265
O 15.015 -17.1337 14.8968
Si 16.0991 -18.269 14.4078
Si 13.6141 -16.9816 15.711
O 15.8388 -19.273 15.7228
O 17.2249 -17.0287 14.265
O 15.7225 -19.1477 13.0524
O 13.4284 -16.0121 17.0145
O 13.0679 -14.5386 13.8093
O 12.6567 -16.7823 14.4005
O 17.4895 -10.5305 11.3074
Si 19.1233 -10.7302 11.3313
Si 16.0341 -9.81597 11.0423
O 16.6857 -12.8808 11.5011
Si 18.0799 -13.7384 11.5719
Si 15.0976 -12.5864 11.7552
O 18.0995 -14.6773 12.9435
O 19.1083 -12.4084 11.4741
O 18.1057 -14.7461 10.2579
O 14.7277 -12.7997 13.3137
O 15.0189 -11.0211 11.3811
O 14.3001 -13.4214 10.6168
O 18.4419 -5.94672 14.6375
Si 20.0683 -5.89188 14.3736
Si 16.8632 -5.51492 14.5255
O 18.0495 -8.41873 13.7299
Si 19.5592 -9.02395 13.9867
Si 16.4117 -8.37827 13.6993
O 19.7178 -10.0608 15.2734
O 20.3349 -7.54342 14.19
O 19.8092 -9.92489 12.6123
O 15.8185 -9.33197 14.8566
O 16.0822 -6.86062 14.1197
O 15.8845 -8.70879 12.2082
O 18.6174 -1.14712 11.5108
Si 20.2365 -0.929766 11.6838
Si 17.0134 -1.02111 11.8284
O 18.5899 -3.91614 11.5096
Si 20.2081 -4.13591 11.6849
Si 16.9847 -4.03337 11.8265
O 20.5393 -4.98969 13.0648
O 20.7341 -2.5376 11.6834
O 20.6281 -5.09011 10.3847
O 16.6205 -4.44868 13.3422
O 16.4677 -2.52202 11.6366
O 16.4166 -4.96322 10.6375
O 18.1376 3.38306 19.3744
Si 19.6665 3.98734 19.3914
Si 16.5254 3.33649 19.079
O 18.4976 0.88552 19.9785
Si 20.1234 0.832577 19.7114
Si 16.9167 0.458908 19.866
O 20.6707 0.0165503 21.0589
O 20.4175 2.48324 19.5407
O 20.5803 -0.0742499 18.3996
O 16.4602 -0.08239 21.3167
O 16.1605 1.81597 19.4572
O 16.6591 -0.604536 18.6848
O 16.8199 7.77677 17.3137
Si 18.1677 8.69941 17.1045
Si 15.2208 7.43074 17.3983
O 17.6296 5.52698 16.4329
Si 19.2441 5.70846 16.7062
Si 16.1793 4.76476 16.3967
O 19.8687 4.8614 17.9937
O 19.2099 7.3839 16.9111
O 19.8918 5.02391 15.3339
O 16.1485 3.62705 17.5383
O 15.1615 5.90276 16.9004
O 15.8751 4.26023 14.8929
O 14.5645 11.861 19.4481
Si 15.729 13.0224 19.4902
Si 13.0874 11.1966 19.186
O 15.8341 9.77687 19.8302
Si 17.3937 10.2958 19.7673
Si 14.5808 8.74358 20.062
O 18.123 9.74636 21.1551
O 17.0181 11.9376 19.6273
O 18.2153 9.63489 18.4801
O 14.4512 8.26915 21.5975
O 13.3411 9.66878 19.6208
O 14.7022 7.61498 18.9151
O 11.6043 15.3809 17.4023
Si 12.4753 16.7644 17.2017
Si 10.2737 14.4309 17.5178
O 13.2317 13.6466 16.5807
Si 14.6545 14.4425 16.8125
Si 12.2085 12.3687 16.5104
O 15.5672 13.9186 18.1004
O 13.9561 15.9693 17.0119
O 15.5132 14.0589 15.4377
O 12.6241 11.3023 17.6458
O 10.824 13.0036 17.0233
O 12.1293 11.8193 14.9954
O 7.90783 18.2053 19.4609
Si 8.48799 19.7423 19.5599
Si 6.80983 17.0059 19.244
O 9.88825 16.8363 19.9574
Si 11.1177 17.9261 19.8629
Si 9.1567 15.3845 20.1772
O 12.0136 17.7156 21.2477
O 10.1073 19.2749 19.7112
O 12.1348 17.6406 18.5761
O 9.22543 14.899 21.7131
O 7.65398 15.7192 19.7121
O 9.73633 14.4002 19.038
O 3.76891 20.1897 17.467
Si 3.98237 21.8093 17.2696
Si 2.93883 18.7827 17.5782
O 5.95538 19.2845 16.6632
Si 6.9287 20.5958 16.8811
Si 5.54353 17.7009 16.5602
O 7.9722 20.503 18.174
O 5.65927 21.6987 17.0695
O 7.8746 20.5939 15.51
O 6.33743 16.8909 17.7068
O 4.01473 17.7107 17.0544
O 5.70469 17.1822 15.0418
O -0.777493 21.2252 19.6758
Si -0.860828 22.8668 19.6674
Si -1.23725 19.6846 19.3523
O 1.62349 20.7977 20.0418
Si 2.28555 22.2998 19.9444
Si 1.57231 19.1732 20.258
O 3.18399 22.4727 21.3324
O 0.807735 23.1097 19.7981
O 3.32481 22.4618 18.6537
O 1.81627 18.7579 21.7954
O 0.0680364 18.8571 19.7897
O 2.49837 18.5256 19.108
O -5.42014 21.311 17.8103
Si -5.83528 22.8643 17.4259
Si -5.51875 19.6735 17.8041
O -3.02087 21.4118 16.756
Si -2.65572 22.9966 16.9977
Si -2.72533 19.8051 16.7008
O -1.64005 23.3268 18.2734
O -4.26706 23.4609 17.2219
O -1.81291 23.3766 15.6106
O -1.60537 19.4491 17.8026
O -4.07549 19.1735 17.3033
O -2.4054 19.3811 15.1769