2640
 Atoms. Timestep: 198549
O 12.572 5.99517 13.9756
Si 14.1598 5.57581 13.7876
Si 11.0403 6.05734 13.3532
O 11.6992 2.56757 13.9962
Si 13.3502 2.48104 13.9107
Si 10.1726 3.19507 14.0445
O 13.6657 1.72955 15.3639
O 14.1641 3.92085 13.8154
O 13.6347 1.61967 12.5125
O 9.50893 2.71527 15.4671
O 10.2159 4.81825 14.0244
O 9.51201 2.69816 12.6192
O 11.5094 9.39543 11.0569
Si 13.0904 9.78899 10.8537
Si 10.334 8.78822 12.0828
O 13.0399 6.08693 10.4858
Si 14.4133 6.87637 10.9137
Si 11.4218 6.27726 10.421
O 14.7769 6.20989 12.3847
O 14.1533 8.51454 10.9159
O 14.8613 6.22507 72.1003
O 10.9688 5.3702 11.7877
O 11.4488 7.29981 11.9674
O 11.519 7.60874 72.0341
O 8.61598 11.9332 13.5685
Si 9.86019 12.9974 13.7864
Si 8.12248 10.4767 16.3589
O 10.9941 9.54094 13.5574
Si 12.1415 10.7776 13.6822
Si 10.2304 8.71503 14.8796
O 13.0347 10.5374 15.0666
O 11.3128 12.208 13.8075
O 13.0285 10.6433 12.2844
O 10.0094 7.78227 16.3682
O 8.93253 9.72398 14.9171
O 10.2532 7.67561 13.5202
O 5.15455 12.388 11.7503
Si 5.61663 13.9612 11.5872
Si 5.4277 10.7738 11.8823
O 8.82931 11.9555 10.8063
Si 8.75206 13.5902 10.9666
Si 7.99317 10.3875 13.4806
O 9.62367 13.7744 12.3516
O 7.23156 14.1774 11.2642
O 9.46775 13.8156 72.1363
O 7.16042 10.643 14.9546
O 7.05642 10.5069 12.0127
O 8.90092 9.73766 12.0748
O 0.752535 12.4418 14.8034
Si 1.02444 14.0544 14.5833
Si 1.06595 10.8323 14.9466
O 4.50318 12.3973 14.61
Si 4.22675 14.0166 14.4549
Si 4.19478 10.7846 14.7217
O 4.84826 14.5022 15.9159
O 2.62475 14.4131 14.3829
O 5.04062 14.4849 13.0701
O 4.89196 10.2522 16.1135
O 2.62573 10.3945 14.8521
O 4.74199 10.2467 13.272
O -2.90917 12.2486 10.3312
Si -3.45684 13.6623 10.9504
Si -2.74277 10.6584 10.5157
O 0.0320135 12.4583 11.9848
Si -0.383967 14.043 11.7233
Si -0.181212 10.8272 12.1186
O 0.179493 14.5371 13.2231
O -1.98891 14.3211 11.3834
O 0.442301 14.5451 10.369
O 0.394405 10.2968 13.5512
O -1.78285 10.4662 12.012
O 0.490697 10.3138 10.7032
O -6.66106 9.52451 13.8441
Si -7.33072 11.0388 13.7572
Si -5.5807 8.27397 13.9327
O -3.65917 11.5224 13.8408
Si -4.65902 12.831 13.7852
Si -3.1072 10.0311 13.3153
O -4.25883 13.7349 15.1499
O -6.224 12.2753 13.7882
O -4.3806 13.5713 12.3225
O -2.4647 9.93216 14.819
O -4.04413 8.77693 13.8183
O -3.72258 10.08 11.7341
O -9.00695 6.81812 10.1223
Si -10.3559 7.73836 10.3349
Si -8.13039 5.4371 12.6625
O -7.16203 9.22799 10.991
Si -8.45323 10.2284 10.8882
Si -6.61172 7.69804 11.0995
O -8.24663 11.0061 12.3557
O -9.79092 9.27001 10.6631
O -8.18041 11.0719 72.1442
O -5.72438 7.57556 12.4643
O -7.80342 6.76857 11.7178
O -5.93252 7.45791 72.2781
O -11.1156 2.97888 13.9275
Si -12.561 3.7459 13.781
Si -9.4806 2.9563 14.0111
O -9.79382 5.62691 12.8423
Si -11.1421 6.51564 13.1763
Si -8.19843 5.42453 15.4759
O -11.0315 7.50399 14.5184
O -12.2804 5.35948 13.5303
O -11.2255 7.25564 11.6771
O -7.82536 4.82016 16.8983
O -8.76857 4.43534 14.0782
O -7.36032 5.85199 14.0952
O -12.1191 -1.17901 11.0357
Si -13.7038 -0.730505 11.0313
Si -10.5625 -1.16764 11.6599
O -11.279 2.31228 11.0643
Si -12.9309 2.39116 10.9471
Si -9.7242 1.75993 11.1566
O -13.2543 3.13843 12.3991
O -13.7087 0.925144 10.888
O -13.2095 3.28174 72.2126
O -9.07354 2.34047 12.5454
O -9.64891 0.156216 11.3603
O -9.09434 2.18181 72.3611
O -11.666 -4.97605 12.9466
Si -13.2966 -5.16967 13.1734
Si -10.2341 -4.16653 12.8303
O -12.6082 -2.15763 14.5867
Si -14.0858 -2.15716 13.871
Si -11.0615 -1.73849 14.4516
O -14.4167 -1.45268 15.3846
O -14.1488 -3.76864 13.454
O -14.2936 -1.2254 12.5108
O -10.269 -1.7176 15.8383
O -10.5 -2.54912 12.9531
O -10.906 -0.613432 13.2306
O -9.93894 -9.0875 10.339
Si -11.5446 -9.44286 10.4633
Si -8.56228 -8.19242 10.2434
O -11.3871 -5.62946 10.119
Si -12.7831 -6.48566 10.3168
Si -9.77666 -5.31435 9.99919
O -13.543 -5.89274 11.6825
O -12.5185 -8.10721 10.5062
O -13.4652 -6.1093 71.4984
O -9.52952 -4.49375 11.3949
O -8.78708 -6.59554 10.0831
O -9.50493 -4.59268 71.2031
O -7.95357 -12.7348 14.43
Si -9.35961 -13.4177 13.9127
Si -6.68762 -11.7567 14.1552
O -9.6697 -9.70048 13.1904
Si -10.9621 -10.7134 13.3298
Si -8.07437 -9.32265 13.0844
O -11.7493 -10.2198 14.7054
O -10.5335 -12.291 13.6142
O -11.6759 -10.3622 11.8559
O -7.79594 -8.65272 14.559
O -7.1396 -10.673 12.8767
O -7.87118 -8.46224 11.7055
O -4.55583 -13.8944 11.3456
Si -5.28116 -15.409 11.1699
Si -4.14572 -12.7424 10.0802
O -7.75921 -12.4712 11.1477
Si -8.21404 -14.0648 11.0858
Si -6.53 -11.3098 11.3555
O -9.01812 -14.2214 12.5189
O -6.91896 -15.1117 11.0628
O -9.16787 -14.1452 72.3769
O -5.98891 -12.293 12.6594
O -5.81354 -12.5955 10.4922
O -6.61339 -10.8655 72.4531
O -0.857004 -14.3112 14.4847
Si -0.854006 -15.9031 14.098
Si -1.59592 -12.8843 14.3139
O -4.04726 -14.3095 13.8726
Si -4.00725 -15.9357 14.0134
Si -4.34616 -13.0234 12.8501
O -4.76029 -16.1528 15.4752
O -2.42391 -16.4172 14.0274
O -4.81634 -16.1837 12.5733
O -4.98283 -12.4685 14.3739
O -2.68214 -12.7913 12.8559
O -4.48163 -11.5695 11.5679
O 2.05974 -11.7304 11.1269
Si 2.80346 -13.209 11.1446
Si 0.931301 -10.5242 11.1362
O -0.766814 -13.8881 11.0387
Si 0.268585 -15.1613 11.232
Si -1.48748 -12.4356 11.4436
O -0.0534056 -15.9614 12.6492
O 1.79295 -14.5206 11.1793
O -0.07271 -16.0557 72.5273
O -0.761871 -12.2622 12.9934
O -0.586615 -11.1024 11.1225
O -2.44886 -12.5968 10.0304
O 5.68566 -8.92251 14.083
Si 6.45147 -10.3776 13.9928
Si 4.44438 -7.84989 14.1848
O 2.70104 -11.2504 13.9971
Si 3.92371 -12.3503 13.9891
Si 1.97004 -9.78053 13.994
O 3.67396 -13.1746 15.4172
O 5.4278 -11.6713 13.9388
O 3.66556 -13.1766 12.5681
O 1.09771 -9.76746 15.3859
O 2.96333 -8.51528 14.2383
O 1.20238 -9.69651 12.5372
O 8.46546 -6.17358 10.3434
Si 9.68344 -7.26162 10.5113
Si 7.31552 -4.94192 12.8708
O 6.26378 -8.44115 11.2994
Si 7.52605 -9.49134 11.1332
Si 5.4193 -7.02864 11.3534
O 7.37208 -10.276 12.6016
O 8.95028 -8.70044 10.8604
O 7.24087 -10.3738 72.4136
O 4.49663 -7.13666 12.7081
O 6.25773 -5.69941 11.8107
O 4.70713 -6.96913 72.5197
O 10.3477 -2.35315 13.8048
Si 11.7104 -3.2558 13.7488
Si 8.72031 -2.26348 13.8701
O 8.7121 -5.86314 12.9969
Si 10.3182 -6.13319 13.3477
Si 7.83934 -4.69363 15.6739
O 10.362 -7.08199 14.7072
O 11.3449 -4.86269 13.6176
O 10.5373 -6.82897 11.8569
O 7.47683 -4.15781 17.1368
O 8.11308 -3.77583 14.1027
O 6.8243 -5.25992 14.456
O 11.4944 1.82134 11.1331
Si 12.9845 1.1236 11.0608
Si 9.85675 1.95745 11.1884
O 10.4991 -1.78206 10.9631
Si 12.1376 -1.96011 10.914
Si 9.01723 -1.06589 11.0204
O 12.4257 -2.75828 12.3393
O 12.9447 -0.521677 10.9358
O 12.4012 -2.80834 72.1586
O 8.32967 -1.64218 12.4005
O 9.04052 0.551753 11.1719
O 8.37665 -1.44669 72.2122
O 12.572 5.99519 19.6716
Si 14.1598 5.57581 19.4836
Si 11.0403 6.05734 19.0492
O 11.6992 2.56758 19.6922
Si 13.3502 2.48104 19.6067
Si 10.1726 3.19508 19.7405
O 13.6657 1.72955 21.0599
O 14.1641 3.92085 19.5114
O 13.6347 1.61966 18.2085
O 9.50893 2.71527 21.1631
O 10.2158 4.81825 19.7204
O 9.51202 2.69818 18.3152
O 11.5094 9.39541 16.7529
Si 13.0904 9.78898 16.5497
Si 10.334 8.7882 17.7788
O 13.0399 6.08691 16.1818
Si 14.4133 6.87635 16.6097
Si 11.4218 6.27726 16.117
O 14.7769 6.20989 18.0807
O 14.1533 8.51452 16.6119
O 14.8613 6.22508 15.1404
O 10.9688 5.3702 17.4837
O 11.4488 7.29981 17.6634
O 11.519 7.60873 15.0741
O 8.61599 11.9332 19.2645
Si 9.8602 12.9974 19.4824
Si 8.12248 10.4767 22.0549
O 10.9941 9.54094 19.2533
Si 12.1415 10.7776 19.3782
Si 10.2304 8.71504 20.5756
O 13.0347 10.5374 20.7626
O 11.3128 12.208 19.5035
O 13.0285 10.6432 17.9803
O 10.0094 7.78228 22.0642
O 8.93253 9.72399 20.6131
O 10.2532 7.6756 19.2162
O 5.15457 12.388 17.4463
Si 5.61663 13.9612 17.2832
Si 5.4277 10.7738 17.5783
O 8.82932 11.9555 16.5023
Si 8.75206 13.5902 16.6626
Si 7.99318 10.3875 19.1766
O 9.62367 13.7744 18.0476
O 7.23156 14.1774 16.9601
O 9.46775 13.8156 15.1764
O 7.16043 10.643 20.6506
O 7.05642 10.5069 17.7087
O 8.90092 9.73765 17.7708
O 0.752534 12.4418 20.4993
Si 1.02444 14.0544 20.2793
Si 1.06595 10.8323 20.6426
O 4.50318 12.3973 20.306
Si 4.22675 14.0166 20.1509
Si 4.19479 10.7846 20.4177
O 4.84826 14.5022 21.6118
O 2.62475 14.4131 20.0789
O 5.04062 14.4849 18.7661
O 4.89195 10.2522 21.8095
O 2.62574 10.3945 20.5481
O 4.742 10.2467 18.968
O -2.90916 12.2486 16.0272
Si -3.45684 13.6623 16.6464
Si -2.74276 10.6584 16.2117
O 0.0320181 12.4583 17.6808
Si -0.383965 14.043 17.4193
Si -0.181211 10.8272 17.8146
O 0.179494 14.5371 18.9191
O -1.98891 14.3211 17.0794
O 0.442303 14.5451 16.065
O 0.394407 10.2968 19.2472
O -1.78285 10.4662 17.708
O 0.490691 10.3138 16.3992
O -6.66106 9.52452 19.5401
Si -7.33072 11.0388 19.4532
Si -5.5807 8.27397 19.6287
O -3.65916 11.5224 19.5368
Si -4.65902 12.831 19.4812
Si -3.10719 10.0311 19.0113
O -4.25883 13.7349 20.8459
O -6.224 12.2753 19.4842
O -4.3806 13.5713 18.0185
O -2.4647 9.93216 20.515
O -4.04413 8.77694 19.5143
O -3.72258 10.08 17.4301
O -9.00694 6.81811 15.8183
Si -10.3559 7.73836 16.0309
Si -8.13039 5.4371 18.3585
O -7.16203 9.22799 16.687
Si -8.45323 10.2284 16.5842
Si -6.61172 7.69804 16.7955
O -8.24663 11.0061 18.0517
O -9.79092 9.27001 16.3591
O -8.18041 11.0719 15.1842
O -5.72438 7.57557 18.1603
O -7.80342 6.76857 17.4138
O -5.93253 7.45791 15.3181
O -11.1157 2.97888 19.6235
Si -12.561 3.7459 19.477
Si -9.4806 2.9563 19.7071
O -9.79382 5.62691 18.5383
Si -11.1421 6.51564 18.8723
Si -8.19843 5.42453 21.1719
O -11.0315 7.50399 20.2144
O -12.2804 5.35948 19.2262
O -11.2255 7.25564 17.3731
O -7.82536 4.82016 22.5943
O -8.76857 4.43535 19.7742
O -7.36032 5.85198 19.7912
O -12.1191 -1.179 16.7317
Si -13.7038 -0.730499 16.7273
Si -10.5625 -1.16764 17.3559
O -11.279 2.31229 16.7603
Si -12.9309 2.39116 16.6431
Si -9.7242 1.75994 16.8526
O -13.2543 3.13843 18.0951
O -13.7087 0.925149 16.584
O -13.2095 3.28175 15.2527
O -9.07354 2.34048 18.2414
O -9.64891 0.156224 17.0563
O -9.09435 2.18181 15.4012
O -11.666 -4.97604 18.6426
Si -13.2966 -5.16967 18.8693
Si -10.2341 -4.16652 18.5263
O -12.6082 -2.15762 20.2827
Si -14.0858 -2.15715 19.567
Si -11.0615 -1.73848 20.1476
O -14.4167 -1.45267 21.0806
O -14.1488 -3.76863 19.15
O -14.2936 -1.22539 18.2068
O -10.269 -1.71759 21.5343
O -10.5 -2.54911 18.6491
O -10.906 -0.613423 18.9266
O -9.93893 -9.0875 16.035
Si -11.5446 -9.44286 16.1593
Si -8.56227 -8.19241 15.9394
O -11.3871 -5.62945 15.815
Si -12.7831 -6.48566 16.0128
Si -9.77665 -5.31434 15.6952
O -13.543 -5.89273 17.3785
O -12.5185 -8.10721 16.2022
O -13.4652 -6.10931 14.5385
O -9.52952 -4.49374 17.0909
O -8.78707 -6.59553 15.7791
O -9.50493 -4.59269 14.2432
O -7.95357 -12.7347 20.126
Si -9.3596 -13.4177 19.6087
Si -6.68761 -11.7567 19.8512
O -9.6697 -9.70047 18.8864
Si -10.9621 -10.7134 19.0258
Si -8.07437 -9.32264 18.7804
O -11.7493 -10.2198 20.4014
O -10.5335 -12.291 19.3102
O -11.6759 -10.3622 17.5519
O -7.79594 -8.65272 20.255
O -7.13959 -10.673 18.5727
O -7.87118 -8.46223 17.4015
O -4.55583 -13.8944 17.0417
Si -5.28115 -15.409 16.8659
Si -4.14572 -12.7424 15.7762
O -7.7592 -12.4711 16.8437
Si -8.21404 -14.0648 16.7818
Si -6.52999 -11.3098 17.0516
O -9.01811 -14.2214 18.2149
O -6.91896 -15.1117 16.7588
O -9.16788 -14.1452 15.417
O -5.98891 -12.293 18.3554
O -5.81354 -12.5955 16.1882
O -6.61339 -10.8656 15.4932
O -0.857014 -14.3112 20.1807
Si -0.854014 -15.9031 19.794
Si -1.59593 -12.8843 20.0098
O -4.04728 -14.3095 19.5686
Si -4.00727 -15.9357 19.7094
Si -4.34616 -13.0234 18.546
O -4.7603 -16.1528 21.1712
O -2.42392 -16.4172 19.7234
O -4.81635 -16.1837 18.2693
O -4.98282 -12.4685 20.0699
O -2.68215 -12.7913 18.5519
O -4.48163 -11.5695 17.2639
O 2.05974 -11.7304 16.8229
Si 2.80346 -13.209 16.8406
Si 0.9313 -10.5242 16.8322
O -0.76681 -13.8881 16.7347
Si 0.268584 -15.1613 16.928
Si -1.48748 -12.4356 17.1396
O -0.053411 -15.9615 18.3452
O 1.79295 -14.5206 16.8754
O -0.0727088 -16.0556 15.5674
O -0.761883 -12.2622 18.6894
O -0.586621 -11.1024 16.8185
O -2.44886 -12.5968 15.7264
O 5.68566 -8.92251 19.779
Si 6.45148 -10.3776 19.6888
Si 4.44438 -7.84989 19.8808
O 2.70104 -11.2504 19.6931
Si 3.92371 -12.3503 19.6851
Si 1.97004 -9.78053 19.69
O 3.67395 -13.1746 21.1132
O 5.4278 -11.6713 19.6348
O 3.66556 -13.1766 18.2641
O 1.09771 -9.76746 21.0819
O 2.96333 -8.51529 19.9343
O 1.20238 -9.6965 18.2332
O 8.46546 -6.17358 16.0394
Si 9.68344 -7.26163 16.2073
Si 7.31552 -4.94191 18.5668
O 6.26378 -8.44115 16.9954
Si 7.52604 -9.49134 16.8292
Si 5.4193 -7.02864 17.0494
O 7.37208 -10.276 18.2976
O 8.95027 -8.70044 16.5564
O 7.24086 -10.3738 15.4536
O 4.49663 -7.13666 18.4041
O 6.25773 -5.69941 17.5066
O 4.70713 -6.96913 15.5598
O 10.3477 -2.35314 19.5008
Si 11.7104 -3.25579 19.4448
Si 8.72031 -2.26349 19.5661
O 8.71209 -5.86313 18.6929
Si 10.3182 -6.13318 19.0437
Si 7.83934 -4.69363 21.3699
O 10.362 -7.08198 20.4032
O 11.3449 -4.86269 19.3136
O 10.5373 -6.82897 17.5529
O 7.47684 -4.15781 22.8328
O 8.11308 -3.77584 19.7987
O 6.8243 -5.25992 20.152
O 11.4944 1.82133 16.8291
Si 12.9845 1.1236 16.7568
Si 9.85676 1.95747 16.8844
O 10.4991 -1.78206 16.6591
Si 12.1376 -1.96011 16.61
Si 9.01723 -1.06588 16.7164
O 12.4257 -2.75827 18.0353
O 12.9447 -0.521683 16.6318
O 12.4012 -2.80833 15.1986
O 8.32966 -1.64219 18.0965
O 9.04053 0.551761 16.8679
O 8.37665 -1.44669 15.2523
O 12.572 5.99519 25.3676
Si 14.1598 5.57582 25.1796
Si 11.0403 6.05734 24.7452
O 11.6992 2.56758 25.3882
Si 13.3502 2.48104 25.3027
Si 10.1726 3.19508 25.4365
O 13.6657 1.72955 26.7559
O 14.1641 3.92086 25.2074
O 13.6347 1.61966 23.9045
O 9.50893 2.71528 26.8591
O 10.2158 4.81825 25.4163
O 9.51202 2.69818 24.0112
O 11.5094 9.39539 22.4489
Si 13.0904 9.78898 22.2457
Si 10.334 8.7882 23.4748
O 13.0399 6.0869 21.8778
Si 14.4133 6.87635 22.3057
Si 11.4218 6.27726 21.813
O 14.7769 6.20988 23.7767
O 14.1533 8.51451 22.3079
O 14.8613 6.2251 20.8364
O 10.9688 5.37019 23.1797
O 11.4488 7.2998 23.3594
O 11.519 7.60873 20.7701
O 8.61599 11.9332 24.9605
Si 9.86019 12.9974 25.1784
Si 8.12248 10.4767 27.7509
O 10.9941 9.54094 24.9493
Si 12.1415 10.7776 25.0742
Si 10.2304 8.71504 26.2716
O 13.0347 10.5374 26.4586
O 11.3128 12.208 25.1995
O 13.0285 10.6432 23.6763
O 10.0094 7.78229 27.7602
O 8.93254 9.72399 26.3091
O 10.2532 7.6756 24.9122
O 5.15457 12.388 23.1423
Si 5.61663 13.9612 22.9792
Si 5.4277 10.7738 23.2743
O 8.82932 11.9555 22.1983
Si 8.75205 13.5902 22.3586
Si 7.99318 10.3875 24.8726
O 9.62367 13.7744 23.7435
O 7.23156 14.1774 22.6561
O 9.46773 13.8156 20.8724
O 7.16044 10.643 26.3466
O 7.05642 10.5069 23.4047
O 8.90092 9.73765 23.4668
O 0.752532 12.4418 26.1953
Si 1.02444 14.0544 25.9753
Si 1.06595 10.8323 26.3386
O 4.50318 12.3973 26.002
Si 4.22675 14.0166 25.8469
Si 4.19478 10.7846 26.1137
O 4.84826 14.5022 27.3078
O 2.62475 14.4131 25.7749
O 5.04062 14.4849 24.4621
O 4.89195 10.2522 27.5055
O 2.62573 10.3945 26.2441
O 4.742 10.2467 24.664
O -2.90917 12.2486 21.7232
Si -3.45684 13.6623 22.3424
Si -2.74276 10.6584 21.9077
O 0.0320209 12.4582 23.3768
Si -0.383964 14.043 23.1153
Si -0.181209 10.8272 23.5106
O 0.179493 14.5371 24.6151
O -1.98891 14.321 22.7754
O 0.442303 14.5451 21.761
O 0.394409 10.2968 24.9432
O -1.78285 10.4662 23.404
O 0.490691 10.3138 22.0952
O -6.66105 9.52452 25.2361
Si -7.33072 11.0388 25.1491
Si -5.58069 8.27397 25.3247
O -3.65916 11.5224 25.2328
Si -4.65902 12.831 25.1772
Si -3.10719 10.0311 24.7073
O -4.25883 13.7349 26.5419
O -6.224 12.2753 25.1802
O -4.3806 13.5713 23.7145
O -2.4647 9.93216 26.211
O -4.04412 8.77693 25.2103
O -3.72258 10.08 23.1261
O -9.00694 6.81811 21.5143
Si -10.3559 7.73836 21.7269
Si -8.1304 5.4371 24.0545
O -7.16203 9.22799 22.383
Si -8.45323 10.2284 22.2802
Si -6.61172 7.69804 22.4915
O -8.24663 11.0061 23.7477
O -9.79092 9.27001 22.0551
O -8.18041 11.0719 20.8802
O -5.72437 7.57557 23.8563
O -7.80342 6.76857 23.1098
O -5.93253 7.45791 21.0141
O -11.1157 2.97888 25.3195
Si -12.561 3.7459 25.173
Si -9.4806 2.9563 25.4031
O -9.79382 5.62691 24.2343
Si -11.1421 6.51564 24.5682
Si -8.19843 5.42453 26.8679
O -11.0315 7.50399 25.9104
O -12.2804 5.35948 24.9222
O -11.2255 7.25564 23.0691
O -7.82537 4.82016 28.2903
O -8.76858 4.43535 25.4702
O -7.36033 5.85199 25.4872
O -12.1191 -1.179 22.4277
Si -13.7038 -0.730502 22.4233
Si -10.5625 -1.16764 23.0519
O -11.279 2.31229 22.4563
Si -12.9309 2.39116 22.3391
Si -9.7242 1.75994 22.5486
O -13.2543 3.13843 23.7911
O -13.7087 0.925147 22.28
O -13.2095 3.28175 20.9487
O -9.07354 2.34048 23.9374
O -9.64891 0.156222 22.7522
O -9.09435 2.1818 21.0972
O -11.666 -4.97604 24.3386
Si -13.2966 -5.16967 24.5653
Si -10.2341 -4.16652 24.2223
O -12.6082 -2.15764 25.9787
Si -14.0858 -2.15716 25.2629
Si -11.0615 -1.73849 25.8436
O -14.4167 -1.45267 26.7766
O -14.1488 -3.76863 24.846
O -14.2936 -1.22539 23.9028
O -10.269 -1.71759 27.2303
O -10.5 -2.54912 24.345
O -10.906 -0.613429 24.6226
O -9.93893 -9.0875 21.731
Si -11.5446 -9.44286 21.8553
Si -8.56227 -8.19242 21.6354
O -11.3871 -5.62946 21.511
Si -12.7831 -6.48566 21.7088
Si -9.77666 -5.31435 21.3912
O -13.543 -5.89274 23.0745
O -12.5185 -8.10721 21.8982
O -13.4652 -6.1093 20.2345
O -9.52952 -4.49375 22.7868
O -8.78707 -6.59554 21.4751
O -9.50493 -4.59268 19.9392
O -7.95357 -12.7347 25.822
Si -9.35961 -13.4177 25.3047
Si -6.68762 -11.7567 25.5472
O -9.66971 -9.70047 24.5824
Si -10.9621 -10.7134 24.7218
Si -8.07438 -9.32265 24.4764
O -11.7493 -10.2198 26.0974
O -10.5335 -12.291 25.0062
O -11.6759 -10.3622 23.2479
O -7.79595 -8.65272 25.951
O -7.13959 -10.673 24.2686
O -7.87119 -8.46223 23.0975
O -4.55583 -13.8944 22.7376
Si -5.28116 -15.409 22.5619
Si -4.14572 -12.7424 21.4722
O -7.7592 -12.4712 22.5397
Si -8.21405 -14.0648 22.4778
Si -6.52999 -11.3098 22.7475
O -9.01812 -14.2214 23.9109
O -6.91897 -15.1117 22.4548
O -9.16787 -14.1452 21.113
O -5.98891 -12.293 24.0514
O -5.81354 -12.5955 21.8842
O -6.61337 -10.8655 21.1892
O -0.857004 -14.3112 25.8767
Si -0.854007 -15.9031 25.49
Si -1.59593 -12.8843 25.7059
O -4.04727 -14.3095 25.2646
Si -4.00725 -15.9357 25.4054
Si -4.34616 -13.0234 24.2421
O -4.76029 -16.1528 26.8672
O -2.42391 -16.4172 25.4194
O -4.81634 -16.1837 23.9653
O -4.98283 -12.4685 25.7659
O -2.68215 -12.7913 24.2479
O -4.48163 -11.5695 22.9599
O 2.05973 -11.7304 22.5189
Si 2.80345 -13.209 22.5366
Si 0.931296 -10.5242 22.5282
O -0.766824 -13.8881 22.4307
Si 0.268575 -15.1613 22.624
Si -1.48749 -12.4356 22.8356
O -0.0534122 -15.9614 24.0412
O 1.79294 -14.5206 22.5713
O -0.0727175 -16.0556 21.2634
O -0.76188 -12.2622 24.3854
O -0.586621 -11.1024 22.5144
O -2.44886 -12.5968 21.4224
O 5.68565 -8.92251 25.475
Si 6.45147 -10.3776 25.3848
Si 4.44438 -7.84989 25.5768
O 2.70104 -11.2504 25.3891
Si 3.9237 -12.3503 25.3811
Si 1.97004 -9.78053 25.386
O 3.67395 -13.1746 26.8092
O 5.4278 -11.6713 25.3308
O 3.66556 -13.1766 23.9601
O 1.09771 -9.76746 26.7779
O 2.96332 -8.51528 25.6303
O 1.20237 -9.69651 23.9292
O 8.46546 -6.17358 21.7354
Si 9.68344 -7.26163 21.9033
Si 7.31552 -4.94191 24.2628
O 6.26378 -8.44114 22.6914
Si 7.52605 -9.49134 22.5252
Si 5.41931 -7.02863 22.7454
O 7.37208 -10.276 23.9936
O 8.95028 -8.70044 22.2523
O 7.24087 -10.3738 21.1496
O 4.49663 -7.13665 24.1001
O 6.25774 -5.69941 23.2026
O 4.70713 -6.96913 21.2558
O 10.3477 -2.35314 25.1968
Si 11.7104 -3.25579 25.1407
Si 8.72031 -2.26349 25.2621
O 8.7121 -5.86313 24.3889
Si 10.3182 -6.13318 24.7397
Si 7.83934 -4.69363 27.0659
O 10.362 -7.08198 26.0992
O 11.3449 -4.86269 25.0096
O 10.5373 -6.82897 23.2489
O 7.47684 -4.15781 28.5288
O 8.11308 -3.77584 25.4947
O 6.8243 -5.25992 25.848
O 11.4944 1.82133 22.5251
Si 12.9845 1.12359 22.4528
Si 9.85676 1.95747 22.5803
O 10.4991 -1.78207 22.3551
Si 12.1376 -1.96012 22.306
Si 9.01723 -1.06588 22.4124
O 12.4257 -2.75827 23.7313
O 12.9447 -0.521688 22.3278
O 12.4012 -2.80833 20.8946
O 8.32967 -1.6422 23.7925
O 9.04053 0.55176 22.5639
O 8.37665 -1.44669 20.9483
O 12.572 5.99519 31.0636
Si 14.1598 5.57582 30.8756
Si 11.0403 6.05734 30.4412
O 11.6992 2.56758 31.0842
Si 13.3502 2.48104 30.9987
Si 10.1726 3.19508 31.1325
O 13.6657 1.72955 32.4518
O 14.1641 3.92086 30.9034
O 13.6347 1.61966 29.6005
O 9.50893 2.71528 32.5551
O 10.2158 4.81825 31.1123
O 9.51202 2.69818 29.7072
O 11.5094 9.3954 28.1449
Si 13.0904 9.78898 27.9417
Si 10.334 8.7882 29.1708
O 13.0399 6.0869 27.5738
Si 14.4133 6.87635 28.0017
Si 11.4218 6.27726 27.509
O 14.7769 6.20988 29.4727
O 14.1533 8.51451 28.0039
O 14.8613 6.2251 26.5324
O 10.9688 5.37019 28.8757
O 11.4488 7.2998 29.0554
O 11.519 7.60873 26.4661
O 8.61599 11.9332 30.6565
Si 9.86019 12.9974 30.8744
Si 8.12248 10.4767 33.4469
O 10.9941 9.54095 30.6453
Si 12.1415 10.7776 30.7702
Si 10.2304 8.71505 31.9676
O 13.0347 10.5374 32.1546
O 11.3128 12.208 30.8955
O 13.0285 10.6432 29.3723
O 10.0094 7.78229 33.4562
O 8.93254 9.72399 32.0051
O 10.2532 7.6756 30.6082
O 5.15457 12.388 28.8383
Si 5.61663 13.9612 28.6752
Si 5.4277 10.7738 28.9703
O 8.82933 11.9555 27.8943
Si 8.75205 13.5902 28.0546
Si 7.99318 10.3875 30.5686
O 9.62366 13.7744 29.4395
O 7.23156 14.1774 28.3521
O 9.46773 13.8156 26.5684
O 7.16044 10.643 32.0426
O 7.05642 10.5069 29.1007
O 8.90092 9.73765 29.1628
O 0.75253 12.4418 31.8913
Si 1.02443 14.0544 31.6713
Si 1.06595 10.8323 32.0346
O 4.50318 12.3973 31.698
Si 4.22675 14.0166 31.5429
Si 4.19478 10.7846 31.8097
O 4.84826 14.5022 33.0038
O 2.62475 14.4131 31.4709
O 5.04062 14.4849 30.1581
O 4.89195 10.2522 33.2015
O 2.62573 10.3945 31.9401
O 4.742 10.2467 30.36
O -2.90917 12.2486 27.4192
Si -3.45685 13.6623 28.0384
Si -2.74276 10.6584 27.6037
O 0.0320196 12.4582 29.0728
Si -0.383967 14.043 28.8113
Si -0.181209 10.8272 29.2065
O 0.179491 14.5371 30.3111
O -1.98891 14.321 28.4714
O 0.4423 14.5451 27.457
O 0.394409 10.2968 30.6392
O -1.78285 10.4662 29.1
O 0.490689 10.3138 27.7912
O -6.66105 9.52451 30.9321
Si -7.33072 11.0388 30.8451
Si -5.58069 8.27397 31.0207
O -3.65916 11.5224 30.9288
Si -4.65902 12.831 30.8732
Si -3.10719 10.0311 30.4033
O -4.25883 13.7349 32.2379
O -6.224 12.2753 30.8762
O -4.3806 13.5713 29.4105
O -2.4647 9.93216 31.907
O -4.04412 8.77693 30.9063
O -3.72258 10.08 28.8221
O -9.00695 6.81811 27.2102
Si -10.3559 7.73836 27.4229
Si -8.1304 5.4371 29.7504
O -7.16203 9.22799 28.079
Si -8.45323 10.2284 27.9762
Si -6.61172 7.69803 28.1875
O -8.24663 11.0061 29.4437
O -9.79092 9.27001 27.7511
O -8.18041 11.0719 26.5762
O -5.72437 7.57556 29.5522
O -7.80342 6.76857 28.8058
O -5.93252 7.45791 26.7101
O -11.1157 2.97888 31.0155
Si -12.561 3.7459 30.869
Si -9.4806 2.9563 31.0991
O -9.79383 5.62691 29.9303
Si -11.1421 6.51564 30.2642
Si -8.19844 5.42454 32.5639
O -11.0315 7.50399 31.6064
O -12.2804 5.35947 30.6182
O -11.2255 7.25564 28.7651
O -7.82537 4.82016 33.9863
O -8.76858 4.43535 31.1662
O -7.36033 5.85199 31.1832
O -12.1191 -1.179 28.1237
Si -13.7038 -0.730498 28.1193
Si -10.5625 -1.16763 28.7479
O -11.279 2.3123 28.1523
Si -12.9309 2.39116 28.0351
Si -9.7242 1.75994 28.2446
O -13.2543 3.13843 29.4871
O -13.7087 0.92515 27.976
O -13.2095 3.28175 26.6447
O -9.07354 2.34049 29.6334
O -9.64891 0.15623 28.4482
O -9.09435 2.18181 26.7932
O -11.666 -4.97603 30.0346
Si -13.2966 -5.16966 30.2613
Si -10.2341 -4.16651 29.9183
O -12.6082 -2.15761 31.6747
Si -14.0858 -2.15715 30.9589
Si -11.0615 -1.73848 31.5396
O -14.4167 -1.45267 32.4726
O -14.1488 -3.76863 30.542
O -14.2936 -1.22539 29.5988
O -10.269 -1.71759 32.9263
O -10.5 -2.54911 30.041
O -10.906 -0.613418 30.3186
O -9.93894 -9.08749 27.427
Si -11.5446 -9.44286 27.5513
Si -8.56228 -8.19241 27.3314
O -11.3871 -5.62945 27.207
Si -12.7831 -6.48566 27.4048
Si -9.77666 -5.31434 27.0872
O -13.543 -5.89273 28.7705
O -12.5185 -8.10721 27.5942
O -13.4652 -6.10931 25.9305
O -9.52953 -4.49374 28.4828
O -8.78708 -6.59553 27.1711
O -9.50493 -4.59269 25.6352
O -7.95357 -12.7347 31.518
Si -9.35961 -13.4177 31.0006
Si -6.68762 -11.7567 31.2432
O -9.6697 -9.70048 30.2784
Si -10.9621 -10.7134 30.4178
Si -8.07437 -9.32265 30.1724
O -11.7493 -10.2198 31.7933
O -10.5335 -12.291 30.7022
O -11.6759 -10.3622 28.9439
O -7.79594 -8.65273 31.647
O -7.1396 -10.673 29.9646
O -7.87119 -8.46224 28.7935
O -4.55584 -13.8944 28.4336
Si -5.28115 -15.409 28.2579
Si -4.14573 -12.7424 27.1682
O -7.7592 -12.4712 28.2357
Si -8.21404 -14.0648 28.1738
Si -6.53 -11.3098 28.4435
O -9.01811 -14.2214 29.6069
O -6.91896 -15.1117 28.1508
O -9.16788 -14.1452 26.809
O -5.98891 -12.293 29.7474
O -5.81355 -12.5955 27.5802
O -6.61339 -10.8656 26.8852
O -0.857007 -14.3112 31.5727
Si -0.854012 -15.9031 31.186
Si -1.59593 -12.8843 31.4018
O -4.04728 -14.3095 30.9606
Si -4.00726 -15.9357 31.1014
Si -4.34616 -13.0234 29.9381
O -4.7603 -16.1528 32.5632
O -2.42392 -16.4172 31.1154
O -4.81635 -16.1837 29.6613
O -4.98283 -12.4685 31.4619
O -2.68215 -12.7913 29.9439
O -4.48164 -11.5695 28.6559
O 2.05974 -11.7304 28.2149
Si 2.80346 -13.209 28.2326
Si 0.931299 -10.5242 28.2242
O -0.766813 -13.8881 28.1267
Si 0.268583 -15.1613 28.32
Si -1.48749 -12.4356 28.5316
O -0.0534095 -15.9614 29.7372
O 1.79295 -14.5206 28.2673
O -0.0727087 -16.0556 26.9594
O -0.76188 -12.2622 30.0814
O -0.586621 -11.1024 28.2104
O -2.44887 -12.5968 27.1184
O 5.68566 -8.92251 31.171
Si 6.45148 -10.3776 31.0808
Si 4.44438 -7.84989 31.2728
O 2.70104 -11.2504 31.0851
Si 3.92371 -12.3503 31.0771
Si 1.97004 -9.78053 31.082
O 3.67395 -13.1746 32.5052
O 5.42781 -11.6713 31.0268
O 3.66556 -13.1766 29.6561
O 1.09771 -9.76746 32.4739
O 2.96333 -8.51529 31.3263
O 1.20238 -9.6965 29.6252
O 8.46546 -6.17358 27.4314
Si 9.68344 -7.26163 27.5993
Si 7.31552 -4.94191 29.9588
O 6.26377 -8.44115 28.3874
Si 7.52604 -9.49134 28.2212
Si 5.4193 -7.02863 28.4414
O 7.37208 -10.276 29.6896
O 8.95027 -8.70044 27.9483
O 7.24086 -10.3738 26.8456
O 4.49663 -7.13666 29.7961
O 6.25774 -5.69941 28.8986
O 4.70713 -6.96913 26.9518
O 10.3477 -2.35314 30.8928
Si 11.7104 -3.25579 30.8367
Si 8.72031 -2.26349 30.9581
O 8.7121 -5.86313 30.0849
Si 10.3182 -6.13318 30.4357
Si 7.83934 -4.69363 32.7619
O 10.362 -7.08198 31.7952
O 11.3449 -4.86269 30.7056
O 10.5373 -6.82897 28.9449
O 7.47684 -4.15781 34.2248
O 8.11308 -3.77584 31.1907
O 6.82429 -5.25992 31.544
O 11.4944 1.82132 28.2211
Si 12.9845 1.12359 28.1488
Si 9.85676 1.95747 28.2763
O 10.4991 -1.78207 28.0511
Si 12.1376 -1.96012 28.002
Si 9.01723 -1.06588 28.1084
O 12.4257 -2.75827 29.4273
O 12.9447 -0.521688 28.0238
O 12.4012 -2.80833 26.5906
O 8.32966 -1.6422 29.4885
O 9.04053 0.551759 28.2599
O 8.37665 -1.44669 26.6443
O 12.572 5.99519 36.7596
Si 14.1598 5.57582 36.5716
Si 11.0403 6.05734 36.1372
O 11.6992 2.56758 36.7802
Si 13.3502 2.48104 36.6947
Si 10.1726 3.19508 36.8285
O 13.6657 1.72955 38.1478
O 14.1641 3.92086 36.5994
O 13.6347 1.61966 35.2965
O 9.50893 2.71528 38.2511
O 10.2158 4.81825 36.8083
O 9.51202 2.69818 35.4032
O 11.5094 9.3954 33.8409
Si 13.0904 9.78898 33.6377
Si 10.334 8.7882 34.8668
O 13.0399 6.0869 33.2698
Si 14.4133 6.87635 33.6977
Si 11.4218 6.27726 33.205
O 14.7769 6.20989 35.1687
O 14.1533 8.51451 33.6999
O 14.8613 6.2251 32.2284
O 10.9688 5.37019 34.5717
O 11.4488 7.29981 34.7514
O 11.519 7.60873 32.1621
O 8.61599 11.9332 36.3525
Si 9.86019 12.9974 36.5704
Si 8.12248 10.4767 39.1429
O 10.9941 9.54094 36.3413
Si 12.1415 10.7776 36.4662
Si 10.2304 8.71505 37.6636
O 13.0347 10.5374 37.8506
O 11.3128 12.208 36.5915
O 13.0285 10.6432 35.0683
O 10.0094 7.78229 39.1522
O 8.93254 9.72399 37.7011
O 10.2532 7.6756 36.3042
O 5.15457 12.388 34.5343
Si 5.61663 13.9612 34.3712
Si 5.4277 10.7738 34.6663
O 8.82933 11.9555 33.5903
Si 8.75205 13.5902 33.7506
Si 7.99318 10.3875 36.2646
O 9.62366 13.7744 35.1355
O 7.23156 14.1774 34.0481
O 9.46773 13.8156 32.2644
O 7.16044 10.643 37.7386
O 7.05642 10.5069 34.7967
O 8.90092 9.73765 34.8588
O 0.752529 12.4418 37.5873
Si 1.02443 14.0544 37.3672
Si 1.06595 10.8323 37.7306
O 4.50317 12.3973 37.3939
Si 4.22675 14.0166 37.2389
Si 4.19478 10.7846 37.5057
O 4.84826 14.5022 38.6998
O 2.62475 14.4131 37.1669
O 5.04062 14.4849 35.8541
O 4.89196 10.2522 38.8975
O 2.62573 10.3945 37.6361
O 4.742 10.2467 36.056
O -2.90917 12.2486 33.1152
Si -3.45685 13.6623 33.7344
Si -2.74276 10.6584 33.2997
O 0.0320184 12.4582 34.7688
Si -0.383968 14.043 34.5073
Si -0.18121 10.8272 34.9025
O 0.179489 14.5371 36.0071
O -1.98891 14.321 34.1674
O 0.442298 14.5451 33.153
O 0.394408 10.2968 36.3352
O -1.78285 10.4662 34.796
O 0.490687 10.3138 33.4872
O -6.66105 9.52451 36.6281
Si -7.33072 11.0388 36.5411
Si -5.58069 8.27396 36.7167
O -3.65916 11.5224 36.6248
Si -4.65902 12.831 36.5692
Si -3.10719 10.0311 36.0992
O -4.25884 13.7349 37.9339
O -6.224 12.2753 36.5722
O -4.38061 13.5713 35.1065
O -2.4647 9.93216 37.603
O -4.04412 8.77693 36.6022
O -3.72258 10.08 34.518
O -9.00695 6.81812 32.9062
Si -10.3559 7.73836 33.1189
Si -8.13041 5.43709 35.4464
O -7.16204 9.22798 33.775
Si -8.45323 10.2284 33.6722
Si -6.61172 7.69803 33.8835
O -8.24663 11.0061 35.1397
O -9.79093 9.27001 33.4471
O -8.18041 11.0719 32.2722
O -5.72438 7.57556 35.2482
O -7.80342 6.76856 34.5018
O -5.93252 7.4579 32.4061
O -11.1157 2.97887 36.7115
Si -12.561 3.7459 36.565
Si -9.4806 2.9563 36.7951
O -9.79383 5.6269 35.6263
Si -11.1421 6.51564 35.9602
Si -8.19844 5.42454 38.2598
O -11.0315 7.50399 37.3024
O -12.2804 5.35947 36.3142
O -11.2255 7.25564 34.4611
O -7.82538 4.82016 39.6823
O -8.76858 4.43535 36.8622
O -7.36033 5.85199 36.8792
O -12.1191 -1.179 33.8197
Si -13.7038 -0.730497 33.8153
Si -10.5625 -1.16763 34.4439
O -11.279 2.3123 33.8483
Si -12.9309 2.39116 33.7311
Si -9.7242 1.75994 33.9406
O -13.2543 3.13843 35.1831
O -13.7087 0.925151 33.672
O -13.2095 3.28175 32.3407
O -9.07354 2.34048 35.3294
O -9.64891 0.156227 34.1442
O -9.09435 2.18181 32.4892
O -11.666 -4.97604 35.7305
Si -13.2966 -5.16966 35.9573
Si -10.2341 -4.16652 35.6143
O -12.6082 -2.15763 37.3707
Si -14.0858 -2.15715 36.6549
Si -11.0615 -1.73848 37.2356
O -14.4167 -1.45267 38.1686
O -14.1488 -3.76863 36.238
O -14.2936 -1.22539 35.2948
O -10.269 -1.71759 38.6223
O -10.5 -2.54911 35.737
O -10.906 -0.613424 36.0146
O -9.93894 -9.08749 33.123
Si -11.5446 -9.44286 33.2473
Si -8.56228 -8.19241 33.0274
O -11.3871 -5.62945 32.903
Si -12.7831 -6.48565 33.1008
Si -9.77666 -5.31434 32.7832
O -13.543 -5.89273 34.4665
O -12.5185 -8.10721 33.2902
O -13.4652 -6.1093 31.6265
O -9.52952 -4.49374 34.1788
O -8.78708 -6.59553 32.8671
O -9.50493 -4.59268 31.3312
O -7.95357 -12.7347 37.214
Si -9.35961 -13.4177 36.6966
Si -6.68762 -11.7567 36.9392