2688
 Atoms. Timestep: 52932
O 23.4251 2.68872 2.33395
Si 25.0266 2.59461 2.64338
Si 21.9152 2.10556 2.41172
O 23.6939 -0.672049 4.35052
Si 25.2695 -0.278327 4.17995
Si 22.1164 -0.380519 4.1196
O 25.7179 -0.0927745 5.76715
O 12.1964 22.0801 3.09648
O 12.7779 -22.7948 3.39519
O 21.593 0.159946 5.54811
O 10.4822 18.4149 3.31802
O 11.1518 -19.4942 3.94273
O 22.7847 5.12112 -1.91192
Si 24.3898 5.51783 -1.99824
Si 21.1576 4.96722 -2.15932
O 23.2789 2.70322 -0.727316
Si 24.9311 2.70713 -0.535113
Si 21.6561 2.41659 -0.597108
O 25.4528 2.74673 1.04197
O 9.33417 23.4571 -1.74531
O 15.196 -21.3377 -1.28056
O 21.2493 2.33872 0.963384
O 7.51082 20.0425 -2.09268
O 13.0257 -18.1722 -0.75783
O 22.2963 7.04288 2.5566
Si 23.6559 7.95373 2.75069
Si 20.7227 6.64914 2.75879
O 22.9046 4.86627 4.59036
Si 24.4894 5.27373 4.32115
Si 21.3799 4.23817 4.48808
O 24.9614 5.44763 5.90941
O 6.9377 24.4211 3.05189
O 17.5628 -19.5082 3.05353
O 20.8426 4.1871 6.01603
O 5.97851 20.3045 3.12732
O 15.04 -16.6728 2.52798
O 20.9295 10.2051 -2.32743
Si 22.421 10.7885 -1.9797
Si 19.4997 9.48618 -2.00731
O 22.1052 7.45683 -0.124248
Si 23.5558 8.17752 -0.404543
Si 20.4885 7.21252 -0.218573
O 24.0901 8.25118 1.1717
O 3.9015 25.216 -1.74837
O 19.578 -17.4606 -1.59801
O 20.0681 6.76983 1.28295
O 2.78737 21.2418 -1.8621
O 16.7066 -14.937 -2.12359
O 19.9747 12.0007 2.23609
Si 21.1707 13.071 2.59876
Si 18.5756 11.1933 2.4788
O 21.0206 10.0391 4.50371
Si 22.519 10.6374 4.20591
Si 19.7126 9.08167 4.28803
O 22.9262 10.9616 5.78654
O 1.21075 25.5324 3.0277
O 21.3011 -15.2714 3.54549
O 19.0155 9.15375 5.74401
O 0.939993 21.2946 3.15441
O 18.1618 -13.1094 4.05409
O 18.1761 14.4303 -2.41057
Si 19.3504 15.5505 -2.15573
Si 16.7179 13.6985 -2.25194
O 19.4807 12.6703 -0.282006
Si 20.9849 13.3083 -0.53842
Si 18.1419 11.731 -0.461026
O 21.5123 13.4947 1.02711
O -1.84481 25.6727 -1.69484
O 22.7799 -12.7533 -1.10496
O 17.8493 11.201 1.03748
O -1.82729 21.424 -1.81066
O 19.4497 -10.9624 -0.595393
O 16.7855 16.1059 2.15848
Si 17.6582 17.4709 2.46307
Si 15.5575 15.043 2.35556
O 18.1353 14.4955 4.37253
Si 19.4827 15.401 4.10803
Si 17.106 13.2276 4.21283
O 19.8357 15.7959 5.68591
O -4.56272 25.4817 3.06408
O 23.979 -10.1325 3.19834
O 16.493 13.0698 5.70588
O -3.85357 21.2674 3.14165
O 20.504 -8.92954 2.6547
O 14.4339 18.1695 -2.58358
Si 15.3337 19.521 -2.31887
Si 13.1728 17.1317 -2.42374
O 16.0565 16.8311 -0.372891
Si 17.4174 17.7106 -0.675797
Si 15.0039 15.5948 -0.572543
O 17.9101 17.9659 0.893703
O -7.53063 24.9237 -1.68125
O 24.8644 -7.27658 -1.40611
O 14.8807 14.9136 0.89075
O -6.69058 20.8226 -1.71036
O 20.9615 -6.23495 -1.83603
O 12.6007 19.4999 2.08189
Si 13.2313 21.0083 2.33171
Si 11.6659 18.1576 2.26
O 14.3744 18.2044 4.19701
Si 15.4861 19.3878 3.94522
Si 13.6502 16.742 4.04001
O 15.7423 19.8678 5.51656
O -10.2001 24.0665 3.10416
O 25.4712 -4.65193 3.57569
O 13.0902 16.4675 5.53191
O -8.65812 20.0393 3.13081
O 21.1738 -4.23524 3.82483
O 9.96707 21.0247 -2.71152
Si 10.5556 22.5264 -2.41384
Si 9.01901 19.7114 -2.49206
O 11.9388 19.9879 -0.438603
Si 12.9965 21.1936 -0.805782
Si 11.1351 18.5868 -0.681341
O 13.4162 21.5371 0.766579
O -12.9276 22.893 -1.55346
O 25.5331 -1.60462 -1.0357
O 11.1434 17.8608 0.759818
O -10.9533 19.0719 -1.55929
O 21.7851 -1.34521 -0.620368
O 7.3605 22.1022 1.92881
Si 8.08785 23.5533 2.19377
Si 7.1259 20.4825 2.00866
O 10.1216 20.9381 4.11642
Si 10.7027 22.4309 3.77041
Si 9.40746 19.5059 3.79617
O 10.8203 22.9843 5.33665
O -15.3675 21.4434 3.20098
O 25.5166 1.13476 3.31027
O 8.79819 19.1573 5.25884
O -12.9318 17.9327 3.21743
O 21.917 0.571174 2.84655
O 4.78413 22.884 -2.79067
Si 5.18075 24.4729 -2.52909
Si 4.1552 21.3591 -2.69298
O 6.95743 22.288 -0.775543
Si 7.86529 23.6506 -0.962544
Si 6.57542 20.711 -0.973094
O 8.15915 24.0851 0.61688
O -17.6964 19.6604 -1.46638
O 25.1513 4.21579 -1.25418
O 6.69314 20.0605 0.504742
O -14.8867 16.4466 -1.47202
O 20.8732 3.58039 -1.38663
O 2.58396 23.2704 2.56203
Si 2.61676 24.9184 2.34092
Si 2.3263 21.6441 2.4153
O 5.07026 22.7698 3.68846
Si 5.4336 24.3818 3.79404
Si 4.89025 21.1496 3.95975
O 5.50767 24.8906 5.37107
O -19.6929 17.5813 3.27688
O 24.5368 6.75456 3.53395
O 4.81503 20.7846 5.52977
O -16.4741 14.7172 3.2766
O 20.5864 5.21654 3.4794
O -0.748168 23.6664 -2.53063
Si -0.364863 25.2472 -2.37086
Si -0.452891 22.0875 -2.29731
O 2.61853 23.4073 -0.534412
Si 2.50981 25.0086 -0.839702
Si 2.04033 21.8953 -0.597783
O 2.66111 25.4337 0.761872
O -21.4928 15.3191 -1.37426
O 23.3316 9.68667 -1.10221
O 2.27941 21.238 0.853355
O -17.9523 12.8715 -1.37739
O 19.6554 8.46995 -0.767809
O -3.43124 23.5036 1.98561
Si -3.18794 25.1178 2.17018
Si -2.98597 21.9328 1.95201
O -0.0607792 23.5689 3.84411
Si -0.296238 25.1829 3.69226
Si -0.429008 21.995 3.62561
O -0.421727 25.7045 5.26558
O -23.025 12.8357 3.35396
O 22.2807 12.0585 3.34737
O -0.903272 21.5202 5.09935
O -19.2555 10.8238 3.33655
O 18.8828 9.74011 3.08281
O -5.68701 23.1663 -2.60204
Si -6.08729 24.7686 -2.51479
Si -5.70859 21.524 -2.77605
O -3.37199 23.4741 -1.215
Si -3.27649 25.1208 -1.01614
Si -3.20518 21.8348 -1.09597
O -3.30651 25.5825 0.578607
O -24.2167 10.2349 -1.27531
O 20.5478 14.7362 -1.30737
O -3.25658 21.3778 0.456035
O -20.2169 8.74293 -1.27201
O 16.9502 12.581 -1.12025
O -8.33993 22.4756 2.60353
Si -8.64211 24.0899 2.45539
Si -7.52009 21.0494 2.59479
O -5.13816 23.3108 4.07291
Si -5.834 24.8044 3.93238
Si -4.99345 21.6804 4.208
O -5.9416 25.3098 5.51038
O -25.0301 7.39972 3.45317
O 18.9547 16.7429 3.24806
O -4.74095 21.3065 5.76302
O -20.852 6.33261 3.42674
O 16.1045 13.6898 3.0363
O -10.984 21.5307 -2.28149
Si -11.3931 23.1181 -2.20879
Si -9.98766 20.2528 -2.05842
O -7.7855 22.7894 -0.489153
Si -8.67288 24.1474 -0.727269
Si -7.60384 21.1769 -0.432606
O -8.74003 24.5951 0.874542
O -25.5958 4.65363 -1.1929
O 16.6807 19.0016 -1.46176
O -7.12185 20.7652 1.05298
O -21.3319 4.1221 -1.17436
O 13.6452 16.1303 -1.25122
O -13.5482 20.1645 2.10011
Si -13.9924 21.7423 2.2808
Si -12.5024 18.9084 2.0061
O -10.492 21.6965 3.77917
Si -11.3958 23.0696 3.75451
Si -10.1949 20.0925 3.61281
O -11.7078 23.4952 5.33025
O -25.7877 1.63863 3.49462
O 14.663 20.5804 3.09883
O -10.4172 19.5202 5.11289
O -21.5195 1.41525 3.41683
O 12.5216 16.9694 2.91846
O -15.7541 18.6065 -2.5864
Si -16.3684 20.1248 -2.38433
Si -14.5786 17.4717 -2.67888
O -12.9344 20.474 -0.870089
Si -13.9696 21.7493 -0.889913
Si -12.4596 18.9113 -1.02252
O -14.2921 22.1345 0.693312
O -25.6915 -1.10458 -1.10723
O 11.9775 22.2969 -1.55476
O -12.5323 18.3401 0.49054
O -21.578 -0.477467 -1.055
O 9.6805 18.8896 -1.28348
O -17.3564 17.0061 2.63907
Si -18.3275 18.3327 2.63217
Si -15.958 16.1593 2.77938
O -14.8366 19.2912 4.30027
Si -16.1536 20.2677 4.1107
Si -14.0241 17.8731 4.40325
O -16.4353 20.6691 5.6984
O -25.1851 -4.10216 3.53327
O 9.59851 23.335 2.88961
O -13.5267 17.6701 5.92965
O -21.0041 -3.35648 3.40856
O 8.38657 19.6548 2.55963
O -19.1088 15.0274 -2.05597
Si -20.2324 16.2253 -2.02721
Si -17.6209 14.3611 -1.88338
O -16.8876 17.6067 -0.340432
Si -18.3169 18.4052 -0.538629
Si -15.9239 16.2885 -0.24665
O -18.6234 18.7631 1.0555
O -24.5429 -6.69871 -1.09507
O 6.66442 24.5274 -1.74779
O -15.376 16.142 1.26834
O -20.6201 -5.29112 -0.86664
O 5.14646 20.5628 -1.69915
O -20.8264 12.5583 2.25399
Si -21.9491 13.7531 2.44373
Si -19.3236 11.9161 2.1512
O -18.8496 15.3275 3.91433
Si -20.2802 16.1377 3.92159
Si -17.8462 14.0369 3.77411
O -20.7422 16.3812 5.49823
O -23.4424 -9.66779 3.50727
O 4.12638 25.1387 3.0561
O -17.7613 13.4606 5.28504
O -19.4594 -8.25533 3.4314
O 3.48487 20.8691 3.22018
O -22.0129 10.199 -2.40273
Si -23.262 11.2565 -2.20614
Si -20.439 9.76724 -2.49811
O -20.3777 13.194 -0.690551
Si -21.8959 13.8193 -0.723002
Si -19.2306 12.0378 -0.872791
O -22.3806 13.9865 0.856069
O -22.3011 -12.0082 -1.08838
O 1.04859 25.497 -1.50342
O -19.0638 11.4462 0.624765
O -18.9499 -9.67692 -0.891057
O 0.504512 21.8893 -1.02837
O -22.7101 7.96267 2.77596
Si -24.1784 8.70187 2.80135
Si -21.0827 7.85238 2.94261
O -21.5431 11.1764 4.45487
Si -23.1616 11.4352 4.27419
Si -20.1743 10.2831 4.54788
O -23.5863 11.6871 5.8616
O -20.5331 -14.6348 3.46315
O -1.69597 25.5195 2.82886
O -19.6132 10.3782 6.06353
O -17.0801 -12.523 3.24323
O -1.45401 21.7712 2.40494
O -23.3192 5.49331 -1.89599
Si -24.8771 6.01482 -1.87217
Si -21.6861 5.57758 -1.7584
O -22.55 8.76224 -0.169844
Si -24.1873 8.82086 -0.368906
Si -21.0721 8.06327 -0.084948
O -24.6376 8.96237 1.22568
O -18.9168 -16.6127 -1.1998
O -4.73972 25.4492 -1.77926
O -20.5398 8.13845 1.4423
O -16.3114 -13.7676 -0.880458
O -4.31006 21.1608 -2.05599
O -23.6959 2.45977 2.48621
Si -25.2599 2.97876 2.62641
Si -22.0596 2.50252 2.35218
O -23.2346 5.73552 3.95607
Si -24.8731 5.85 4.1029
Si -21.7232 5.08572 3.96472
O -25.3861 5.88863 5.68366
O -16.6518 -18.8841 3.28616
O -7.35526 24.8387 3.22808
O -21.3945 4.72303 5.50652
O -13.7799 -16.287 3.01593
O -6.32974 20.9648 3.67172
O -23.7679 -0.10564 -2.30297
Si -25.3446 0.243377 -2.0433
Si -22.1968 0.289919 -2.32579
O -23.6581 3.30515 -0.429199
Si -25.2862 3.1366 -0.534162
Si -22.1168 2.81908 -0.663654
O -25.7741 3.02783 1.04846
O -14.6618 -20.4787 -1.3645
O -10.2129 23.9594 -1.36536
O -21.6586 2.29537 0.79719
O -12.7076 -17.1226 -1.10586
O -8.99044 20.4838 -0.825538
O -23.3761 -2.61753 2.7169
Si -25.0066 -2.56599 2.86812
Si -21.8533 -2.07504 2.93508
O -23.6929 0.739033 4.57111
Si -25.2693 0.314526 4.38855
Si -22.0815 0.475504 4.60511
O -25.7441 0.379775 5.98005
O -11.9914 -22.2008 3.12834
O -12.8251 22.7613 2.92925
O -21.5615 0.807684 6.10136
O -9.76166 -19.0372 2.8645
O -11.0377 19.4185 2.42158
O -22.9935 -4.47032 -1.80178
Si -24.4909 -5.18903 -1.82196
Si -21.3668 -4.1958 -1.77405
O -23.4241 -2.28921 -0.18891
Si -25.0701 -2.43096 -0.29806
Si -21.8748 -1.72432 -0.0856269
O -25.5391 -2.50035 1.29495
O -9.67099 -23.3147 -1.51014
O -15.3547 21.2758 -1.70601
O -21.4338 -1.55269 1.46069
O -8.47112 -19.5484 -1.31851
O -13.1895 18.1237 -2.21538
O -22.0103 -7.624 2.86988
Si -23.5706 -8.16847 2.76594
Si -20.4197 -7.26577 2.60064
O -22.7834 -5.21157 4.00054
Si -24.4173 -5.43005 4.22048
Si -21.196 -4.77361 4.14725
O -24.924 -5.53159 5.79957
O -6.70248 -24.4189 3.01912
O -17.5234 19.5608 3.44521
O -20.7971 -4.68216 5.70921
O -5.24964 -20.8294 2.67225
O -15.0024 16.6811 3.95958
O -21.0531 -10.0851 -2.29924
Si -22.5665 -10.6039 -1.9575
Si -19.79 -9.07815 -2.1213
O -22.3379 -7.1078 -0.139622
Si -23.6987 -7.97322 -0.39671
Si -20.7653 -6.80872 -0.380978
O -24.0682 -8.29849 1.18903
O -4.15446 -25.0633 -1.60361
O -19.5886 17.5325 -1.19824
O -20.0646 -7.14905 1.03082
O -3.56135 -20.9745 -1.41312
O -16.7748 15.0012 -0.679644
O -19.6274 -12.4469 2.44369
Si -21.0471 -13.1893 2.78881
Si -18.2839 -11.577 2.7635
O -21.0915 -9.83066 4.63022
Si -22.4526 -10.7149 4.36524
Si -19.5083 -9.41633 4.54913
O -22.9734 -10.8447 5.94207
O -1.1146 -25.5998 3.01343
O -21.4064 15.1959 3.10886
O -19.1372 -8.93932 6.05312
O -0.431992 -21.5307 2.90519
O -18.2535 13.0267 2.59431
O -18.578 -14.0047 -2.23502
Si -19.5799 -15.2885 -1.98329
Si -17.2242 -13.1121 -2.02873
O -19.8094 -12.156 -0.0755257
Si -21.1912 -13.0245 -0.359506
Si -18.5662 -11.0783 -0.213435
O -21.5832 -13.3682 1.22234
O 1.57656 -25.6667 -1.59256
O -22.8913 12.7559 -1.55223
O -18.004 -10.9347 1.30021
O 1.28089 -21.3967 -1.50796
O -19.54 11.0248 -2.07733
O -16.4415 -16.3647 2.35989
Si -17.4914 -17.6032 2.61146
Si -15.0682 -15.4836 2.51675
O -17.9241 -14.7493 4.47803
Si -19.3526 -15.5443 4.2271
Si -16.6935 -13.6716 4.30061
O -19.857 -15.7868 5.79246
O 4.65152 -25.442 3.06839
O -24.0382 10.1576 3.62583
O -16.4561 -13.1199 5.80075
O 4.16233 -21.2154 2.95995
O -20.5105 8.76885 4.13281
O -14.8396 -17.9086 -2.47722
Si -15.5944 -19.3391 -2.16212
Si -13.745 -16.7109 -2.26324
O -16.4001 -16.4275 -0.264635
Si -17.6402 -17.4692 -0.535889
Si -15.499 -15.0719 -0.447065
O -17.9379 -17.9111 1.03961
O 7.3699 -24.9188 -1.57835
O -24.9169 7.48124 -1.06358
O -14.8574 -14.894 1.02621
O 6.29967 -20.7493 -1.52859
O -21.1674 6.54161 -0.582691
O -12.3308 -19.6912 2.18291
Si -13.0818 -21.1308 2.44643
Si -11.1845 -18.5277 2.34152
O -14.0811 -18.5313 4.39313
Si -15.3426 -19.5487 4.09107
Si -13.1643 -17.1909 4.19552
O -15.8055 -19.8543 5.66067
O 10.224 -24.0638 3.08055
O -25.4691 4.48582 3.33045
O -13.1122 -16.5023 5.65951
O 8.91456 -20.0878 3.05628
O -21.5015 3.91167 2.88928
O -10.3689 -20.8578 -2.67164
Si -10.8136 -22.4079 -2.33328
Si -9.56998 -19.4412 -2.49077
O -12.2358 -19.7385 -0.451469
Si -13.2226 -21.0273 -0.706745
Si -11.6404 -18.2227 -0.6445
O -13.4299 -21.5259 0.867573
O 12.82 -22.9444 -1.51203
O -25.6827 1.75085 -1.39083
O -11.0879 -17.9043 0.847599
O 10.8053 -19.1755 -1.47559
O -22.0144 1.82249 -1.91458
O -7.58806 -22.0657 2.05475
Si -8.0151 -23.621 2.35154
Si -6.78484 -20.6597 2.2757
O -9.65886 -21.2397 4.32796
Si -10.5825 -22.5503 3.95939
Si -9.00696 -19.7621 4.08491
O -10.964 -22.9355 5.53192
O 15.3499 -21.4121 3.21079
O -25.4998 -1.21332 3.73071
O -9.09144 -19.0402 5.52541
O 12.9269 -17.8596 3.20267
O -21.7454 -1.02827 4.15315
O -5.36907 -22.7021 -2.4307
Si -5.4804 -24.3545 -2.34575
Si -4.8532 -21.1363 -2.35718
O -7.49027 -22.0307 -0.599412
Si -8.16848 -23.5174 -0.799592
Si -7.2695 -20.4049 -0.697033
O -8.28803 -24.0558 0.768864
O 17.5889 -19.6263 -1.43609
O -25.2761 -3.91559 -1.0539
O -6.93695 -19.9697 0.823111
O 14.7333 -16.4007 -1.4344
O -21.0838 -2.86086 -0.916625
O -2.24826 -23.371 1.97571
Si -2.46476 -24.9951 2.23209
Si -1.77378 -21.7908 2.06472
O -4.45789 -23.0081 3.98133
Si -5.22 -24.4581 3.79941
Si -4.24605 -21.3988 3.78732
O -5.46558 -24.9202 5.37925
O 19.6884 -17.615 3.30849
O -24.4683 -6.95442 3.50493
O -4.4274 -20.7657 5.26615
O 16.4876 -14.7943 3.30386
O -20.297 -5.83862 3.34187
O 0.578688 -23.559 -2.67684
Si 0.237631 -25.1545 -2.46742
Si 0.29178 -21.9468 -2.66112
O -2.60869 -23.2969 -0.636183
Si -2.62675 -24.9096 -0.923467
Si -2.23091 -21.7375 -0.93427
O -2.57021 -25.4766 0.640854
O 21.4654 -15.3019 -1.35941
O -23.4963 -9.39189 -1.26618
O -1.74579 -21.2543 0.536239
O 17.9601 -12.859 -1.38684
O -20.2454 -7.62441 -1.65606
O 3.3406 -23.5641 2.24135
Si 3.13281 -25.1783 2.39466
Si 2.87027 -22.0277 2.47471
O -0.0400519 -23.6694 4.23041
Si 0.246895 -25.2484 3.92427
Si 0.372077 -22.1043 4.17312
O 0.142149 -25.6843 5.527
O 22.9146 -12.8441 3.39154
O -22.0682 -12.192 3.6692
O 0.0623585 -21.4771 5.62377
O 19.093 -10.8773 3.39629
O -18.5453 -10.5771 3.9985
O 5.59646 -23.1478 -1.96134
Si 5.81848 -24.7661 -2.22519
Si 5.05178 -21.5987 -2.09568
O 2.48708 -23.5573 -0.76687
Si 2.94978 -25.147 -0.768762
Si 2.45004 -21.929 -0.529838
O 3.00878 -25.6544 0.809599
O 24.0847 -10.1261 -1.29012
O -20.7839 -14.4278 -1.1849
O 2.29014 -21.5695 1.03816
O 20.0595 -8.58402 -1.32164
O -17.5723 -11.7098 -1.31805
O 8.1956 -22.5269 2.15095
Si 8.77373 -24.0732 2.24406
Si 8.03466 -20.893 1.97496
O 5.91362 -23.0906 3.52774
Si 6.01688 -24.7347 3.74119
Si 5.58414 -21.4769 3.65748
O 6.10151 -25.188 5.33663
O 24.946 -7.44727 3.48856
O -18.7682 -16.9189 3.4587
O 5.60339 -21.0187 5.20943
O 20.842 -6.62546 3.51853
O -15.4181 -14.3901 3.64137
O 11.1452 -21.4568 -2.60493
Si 11.4111 -23.0735 -2.42166
Si 10.2484 -20.0886 -2.68442
O 7.92997 -22.6116 -0.895408
Si 8.67793 -24.0722 -0.930243
Si 7.82283 -20.9878 -1.06016
O 8.94233 -24.5099 0.650369
O 25.4966 -4.47546 -1.26135
O -16.966 -18.7462 -1.39251
O 8.11996 -20.426 0.429832
O 21.2828 -3.75279 -1.33959
O -14.4641 -15.4255 -1.62427
O 13.255 -20.2937 2.4835
Si 13.8534 -21.8198 2.55433
Si 12.1095 -19.1475 2.70608
O 10.2257 -21.9215 4.27689
Si 11.2706 -23.1623 4.0353
Si 9.85495 -20.3418 4.33809
O 11.3931 -23.5972 5.63784
O 25.6889 -1.7598 3.50112
O -14.4757 -20.7555 3.30407
O 9.33211 -19.988 5.82457
O 21.4545 -1.75583 3.63598
O -11.758 -17.5805 3.51419
O 15.3349 -18.7778 -2.06645
Si 16.1436 -20.2094 -2.08449
Si 14.0461 -17.7707 -1.93057
O 12.5621 -20.7474 -0.421676
Si 13.7537 -21.8749 -0.60903
Si 11.9188 -19.2449 -0.310405
O 14.0033 -22.3102 0.97521
O 25.5387 1.30226 -1.22902
O -12.2848 -22.1222 -1.56997
O 11.4777 -18.9865 1.22486
O 21.314 1.04563 -1.36672
O -10.5579 -18.3496 -1.83388
O 17.6419 -16.8067 2.17648
Si 18.4325 -18.2398 2.38324
Si 16.3302 -15.8347 2.08169
O 15.0632 -19.0146 3.90085
Si 16.2484 -20.1507 3.87219
Si 14.4054 -17.5223 3.73135
O 16.6201 -20.4879 5.4555
O 25.2326 3.99048 3.54632
O -9.45344 -23.541 3.21062
O 14.4194 -16.932 5.23806
O 21.2684 2.85871 3.67606
O -7.52838 -19.9119 3.4843
O 19.3167 -14.7748 -2.4578
Si 20.2902 -16.0943 -2.2662
Si 17.9002 -13.9592 -2.56512
O 17.021 -17.2894 -0.796795
Si 18.3457 -18.2634 -0.788781
Si 16.1792 -15.8885 -0.942698
O 18.779 -18.5574 0.788095
O 24.4206 7.02448 -1.26185
O -6.98791 -24.4049 -1.59957
O 16.1737 -15.2967 0.564536
O 20.3188 6.07293 -1.34546
O -6.00862 -20.2478 -1.68208
O 20.4996 -12.8549 2.69048
Si 21.7752 -13.8888 2.72443
Si 18.938 -12.3811 2.85268
O 18.6331 -15.6737 4.43139
Si 20.1514 -16.2858 4.22638
Si 17.5034 -14.4942 4.52016
O 20.5105 -16.5826 5.82324
O 23.4554 9.42076 3.53573
O -3.93508 -25.2059 3.013
O 16.9552 -14.395 6.03926
O 20.0528 7.57668 3.8841
O -2.84501 -21.0983 3.05354
O 21.721 -10.4115 -1.95087
Si 23.085 -11.3246 -1.93418
Si 20.1181 -10.1235 -1.79349
O 20.1883 -13.4737 -0.26328
Si 21.7651 -13.9205 -0.447337
Si 18.9342 -12.4246 -0.175737
O 22.162 -14.2132 1.14116
O 22.0625 12.2794 -1.30328
O -1.28081 -25.4025 -1.79557
O 18.3647 -12.451 1.33994
O 18.4043 10.5546 -1.5259
O -1.19386 -21.5945 -2.15911
O 22.8066 -7.71856 2.3
Si 24.1676 -8.59789 2.54546
Si 21.1936 -7.54628 2.2466
O 21.5495 -10.9017 4.13187
Si 23.1361 -11.3091 4.04685
Si 20.2702 -9.91081 3.90038
O 23.6316 -11.3884 5.62962
O 20.6666 14.4329 3.4292
O 1.7529 -25.5774 3.2613
O 20.02 -9.28469 5.37173
O 17.7729 11.8685 3.69728
O 1.89901 -21.9368 3.74482
O 23.3206 -5.06946 -2.22203
Si 24.821 -5.75798 -2.11753
Si 21.6933 -4.91236 -2.38491
O 22.5004 -8.24612 -0.820425
Si 24.1094 -8.56663 -0.641629
Si 21.064 -7.44353 -0.781186
O 24.6095 -8.67093 0.941378
O 18.6493 16.9126 -1.48163
O 4.44481 -25.3928 -1.48793
O 20.7762 -7.0639 0.76381
O 15.522 14.6353 -1.75522
O 3.80772 -21.3001 -1.12199
O 23.492 -3.31476 2.9789
Si 25.1406 -3.18848 2.81222
Si 21.8544 -3.1176 2.88587
O 23.1871 -5.60192 4.38742
Si 24.7916 -5.99884 4.31474
Si 21.5443 -5.62229 4.56138
O 25.2474 -6.1042 5.90893
O 16.8527 18.6973 3.26968
O 7.50816 -24.8983 2.97844
O 21.0934 -5.71813 6.10975
O 14.5889 15.5506 3.53555
O 6.59951 -20.6903 2.68511
O 23.5832 0.0264617 -2.07452
Si 25.1954 -0.203988 -1.89806
Si 22.0075 -0.32396 -1.84429
O 23.5176 -3.32521 -0.179651
Si 25.1331 -3.0959 -0.372987
Si 21.9477 -2.87401 -0.158658
O 25.6048 -3.21096 1.21746
O 14.3613 20.699 -1.63665
O 10.1304 -23.9402 -1.7634
O 21.3867 -3.1336 1.33671
O 11.8104 17.7862 -1.901
O 8.73536 -20.4244 -2.25994
O 23.4173 1.89508 12.1811
Si 24.9826 2.45199 12.1884
Si 21.7703 1.80562 12.2293
O 23.5908 -0.309644 13.8463
Si 25.241 -0.352794 13.7206
Si 21.9886 -0.705461 13.9229
O 25.7203 -0.328275 15.3123
O 12.1743 22.0484 12.5088
O 12.8284 -22.7772 12.373
O 21.5194 -0.794854 15.4682
O 10.588 18.4303 12.7011
O 11.0572 -19.3811 11.8734
O 22.7939 5.2618 7.16884
Si 24.3922 5.45131 7.4741
Si 21.2798 4.73893 7.4773
O 23.3932 2.14774 9.27098
Si 24.9418 2.63096 9.01788
Si 21.7647 2.26696 9.21221
O 25.4562 2.59133 10.6006
O 9.38897 23.5479 7.64791
O 15.2466 -21.2798 7.69557
O 21.2429 1.88963 10.6995
O 7.44434 19.9549 7.45354
O 13.0697 -18.1656 7.17874
O 22.1031 7.67335 11.7148
Si 23.6581 8.04479 12.0644
Si 20.7334 6.81764 11.9043
O 23.0463 4.60389 13.8974
Si 24.4958 5.30515 13.6232
Si 21.4534 4.45641 13.6466
O 24.9028 5.58839 15.2085
O 6.87346 24.3623 12.4187
O 17.4829 -19.577 12.8594
O 20.786 4.86474 15.0567
O 5.85981 20.3634 12.6121
O 14.9866 -16.7337 13.3876
O 20.9997 9.96222 7.13331
Si 22.4022 10.793 7.35594
Si 19.4114 9.56322 7.2566
O 21.903 7.91725 9.0614
Si 23.5261 8.21837 8.91373
Si 20.3969 7.25525 8.93814
O 24.0794 8.31907 10.478
O 3.86334 25.1846 7.65449
O 19.5141 -17.506 8.2119
O 20.0174 6.87988 10.4614
O 2.90411 21.1291 7.42508
O 16.6764 -14.9687 8.7305
O 20.054 11.8572 11.7768
Si 21.1863 13.0272 12.0317
Si 18.614 11.1105 11.9809
O 21.0779 9.89284 13.9399
Si 22.5464 10.6038 13.6558
Si 19.7307 8.94903 13.8009
O 22.9724 10.9085 15.2367
O 1.24192 25.5667 12.4311
O 21.3237 -15.2243 12.5141
O 19.1527 8.87387 15.3138
O 1.08189 21.2895 12.5147
O 18.2413 -13.1977 11.9674
O 18.1896 14.4163 7.0034
Si 19.3632 15.5375 7.26081
Si 16.7481 13.6581 7.19637
O 19.5103 12.697 9.22848
Si 21.0055 13.3003 8.88855
Si 18.1948 11.7427 9.04171
O 21.546 13.4367 10.4586
O -1.82595 25.6981 7.66768
O 22.8276 -12.6733 7.9024
O 17.9316 11.114 10.5114
O -1.98401 21.5402 7.61734
O 19.3434 -10.8217 7.42366
O 16.748 16.131 11.5399
Si 17.6479 17.4749 11.8551
Si 15.5329 15.0557 11.7538
O 18.1438 14.4908 13.751
Si 19.4855 15.3984 13.4802
Si 17.1044 13.2379 13.5676
O 19.8275 15.8085 15.0554
O -4.59292 25.4526 12.4447
O 24.038 -10.2447 12.9466
O 16.4486 13.129 15.0418
O -3.99085 21.1921 12.4985
O 19.996 -8.83333 13.2858
O 14.4386 18.1768 6.81914
Si 15.3352 19.5251 7.0924
Si 13.1924 17.1299 7.00331
O 16.0853 16.7944 9.0399
Si 17.4222 17.7034 8.7206
Si 15.0153 15.5751 8.8248
O 17.9107 17.9669 10.2884
O -7.53717 24.9453 7.75097
O 24.7967 -7.32319 8.33888
O 14.8702 14.9081 10.2884
O -6.51961 20.7706 7.73199
O 21.1969 -6.29007 8.80414
O 12.6113 19.5324 11.3462
Si 13.2155 21.0276 11.6847
Si 11.6683 18.2073 11.5277
O 14.3497 18.2242 13.5669
Si 15.4663 19.4023 13.3112
Si 13.5992 16.7789 13.3742
O 15.7228 19.8772 14.8856
O -10.2232 24.115 12.5127
O 25.367 -4.58955 12.6406
O 13.0139 16.5208 14.8654
O -8.65379 20.1382 12.5562
O 21.737 -4.27952 12.1261
O 9.80821 21.0892 6.63379
Si 10.5213 22.5572 6.91846
Si 8.87848 19.7317 6.7726
O 11.7879 20.0689 8.79278
Si 12.9515 21.2081 8.54063
Si 11.052 18.6243 8.58432
O 13.3541 21.5691 10.1151
O -12.9226 22.9295 7.83117
O 25.673 -1.5346 8.0725
O 11.0565 17.9379 10.0519
O -10.9777 19.1293 7.82763
O 21.3879 -1.28491 7.79951
O 7.82823 21.8908 11.5698
Si 8.11574 23.5203 11.6717
Si 7.15361 20.3875 11.6571
O 9.87225 20.9997 13.4228
Si 10.7009 22.4073 13.2185
Si 9.47978 19.4073 13.3186
O 10.8739 22.931 14.787
O -15.3524 21.4066 12.5828
O 25.6146 1.09548 12.9573
O 9.09705 19.01 14.8376
O -12.9127 17.8558 12.5882
O 21.3376 0.492519 13.057
O 4.51659 23.039 6.69914
Si 5.22451 24.4877 6.95682
Si 4.39628 21.443 6.94077
O 7.62018 22.0918 8.85836
Si 7.96449 23.6546 8.51814
Si 6.75771 20.7255 8.68356
O 8.22499 24.0706 10.1078
O -17.6556 19.6322 7.92823
O 25.0259 4.16826 8.34963
O 6.8099 20.0102 10.1264
O -14.8131 16.4001 7.93113
O 21.2624 3.70943 8.71594
O 2.01335 23.3646 11.3463
Si 2.51813 24.9162 11.5554
Si 2.12777 21.7308 11.3647
O 5.14497 22.7706 13.3929
Si 5.33878 24.3707 13.0994
Si 4.61391 21.2569 13.0925
O 5.34051 24.9414 14.6633
O -19.7335 17.6171 12.6683
O 24.4518 6.7389 12.7553
O 4.08114 20.8241 14.5624
O -16.5424 14.7778 12.668
O 21.018 5.32133 12.3719
O -0.392853 23.5791 6.75108
Si -0.437546 25.2306 6.85868
Si -0.780714 21.9765 6.6458
O 1.82272 23.3958 8.3611
Si 2.36894 24.9644 8.38177
Si 1.73261 21.7485 8.33302
O 2.49411 25.427 9.97283
O -21.5251 15.3558 8.02039
O 23.4075 9.71975 8.16611
O 1.77347 21.2251 9.86598
O -18.0068 12.9383 8.02518
O 19.3955 8.32286 8.27851
O -3.00871 23.4972 12.063
Si -3.07096 25.1292 11.7938
Si -2.65985 21.8932 11.9174
O 0.0884991 23.5633 13.2351
Si -0.181634 25.1968 13.249
Si -0.0366217 21.94 13.4807
O -0.187649 25.7063 14.8273
O -22.9865 12.8248 12.755
O 22.2924 12.0413 12.8272
O 0.0744974 21.567 15.0499
O -19.1765 10.8139 12.7495
O 18.814 9.67823 12.6895
O -5.97505 23.1761 6.98779
Si -5.994 24.8127 7.0931
Si -5.31543 21.7009 7.22336
O -2.5998 23.6744 8.86471
Si -3.12635 25.2007 8.60339
Si -2.8148 22.0687 8.88887
O -3.08631 25.6354 10.2099
O -24.1807 10.244 8.10935
O 20.5567 14.7299 8.12463
O -2.43133 21.5313 10.3596
O -20.1568 8.72564 8.11475
O 16.9965 12.5996 8.38789
O -8.72797 22.4399 11.4229
Si -8.81081 24.0763 11.6019
Si -7.99102 20.9794 11.3483
O -5.40571 23.2233 13.1388
Si -5.98543 24.758 13.0949
Si -5.477 21.5981 12.9711
O -6.20228 25.2225 14.6748
O -25.0811 7.41645 12.8271
O 18.9497 16.7393 12.6232
O -5.83312 21.0692 14.4604
O -20.9494 6.31644 12.7836
O 16.1122 13.7007 12.3912
O -11.2681 21.4447 6.72605
Si -11.5146 23.0645 6.92488
Si -10.4032 20.0575 6.64002
O -8.11016 22.5867 8.4526
Si -8.80716 24.0743 8.42913
Si -8.00657 20.9548 8.31466
O -9.01387 24.5281 10.0143
O -25.573 4.64971 8.23978
O 16.6785 18.9995 7.95136
O -8.15942 20.4213 9.8364
O -21.4025 4.28504 8.2693
O 13.6579 16.1471 8.18619
O -13.2134 20.2846 11.9649
Si -13.8467 21.8021 11.9338
Si -12.0581 19.1242 12.0816
O -10.2346 21.8964 13.5967
Si -11.2781 23.1629 13.412
Si -9.76818 20.3292 13.7072
O -11.4789 23.6237 14.9955
O -25.7628 1.67142 12.8973
O 14.6489 20.5892 12.4473
O -9.37465 20.0159 15.2454
O -21.4607 1.55916 12.8458
O 12.5367 17.0183 12.1841
O -15.4151 18.772 7.24481
Si -16.2128 20.2072 7.27748
Si -14.1336 17.7669 7.42734
O -12.6315 20.7442 8.95852
Si -13.8267 21.8623 8.76153
Si -12.0201 19.2311 9.05426
O -14.035 22.284 10.3557
O -25.6679 -1.08269 8.25348
O 11.9611 22.3085 7.7436
O -11.5139 18.9605 10.566
O -21.4441 -0.618174 8.36798
O 9.61882 18.8139 7.87539
O -17.6718 16.8097 11.5593
Si -18.4708 18.2406 11.7493
Si -16.361 15.8339 11.4616
O -15.0757 19.0238 13.2433
Si -16.2731 20.1498 13.229
Si -14.4121 17.5329 13.0789
O -16.672 20.4899 14.8054
O -25.2155 -4.1358 12.912
O 9.61994 23.412 12.417
O -14.4829 16.932 14.5816
O -20.9833 -3.49286 12.8287
O 8.21449 19.3844 12.3269
O -19.3919 14.7913 6.89384
Si -20.351 16.1182 7.09229
Si -17.9707 13.9873 6.80014
O -17.0887 17.298 8.60872
Si -18.4091 18.2747 8.58067
Si -16.2541 15.8975 8.43658
O -18.8369 18.5607 10.1597
O -24.5689 -6.73959 8.30935
O 6.65617 24.4437 7.82746
O -16.2301 15.2974 9.94027
O -20.7444 -5.18878 8.42467
O 5.26317 21.0188 8.21748
O -20.588 12.8266 12.0926
Si -21.8456 13.885 12.108
Si -19.0304 12.3404 12.2576
O -18.6915 15.6628 13.7771
Si -20.2055 16.2904 13.5872
Si -17.57 14.4743 13.8746
O -20.5663 16.6168 15.1767
O -23.3908 -9.5969 12.9251
O 4.0541 25.0035 12.2262
O -17.0219 14.4067 15.3959
O -19.5284 -8.14252 12.7347
O 3.56645 21.2212 11.8687
O -21.7794 10.531 7.42354
Si -23.166 11.4113 7.44473
Si -20.1723 10.24 7.57661
O -20.2523 13.5488 9.14038
Si -21.8315 13.983 8.93851
Si -18.9888 12.5128 9.23228
O -22.2297 14.2419 10.5317
O -22.2183 -11.9429 8.30361
O 1.01485 25.602 7.6144
O -18.4416 12.4801 10.7549
O -19.0284 -9.75004 8.65035
O 0.438057 21.3176 7.47542
O -22.8784 7.68432 11.7434
Si -24.2574 8.57412 11.9274
Si -21.2678 7.40236 11.6335
O -21.6234 10.8306 13.3737
Si -23.204 11.2835 13.4046
Si -20.3366 9.81786 13.2575
O -23.7048 11.4145 14.9826
O -20.503 -14.6072 12.8323
O -1.63797 25.6087 12.5276
O -20.1109 9.29641 14.7731
O -17.0863 -12.6294 12.6375
O -1.44545 21.4511 12.8746
O -23.482 5.14809 7.04805
Si -24.9334 5.87314 7.28523
Si -21.8592 5.15314 6.99245
O -22.6017 8.47131 8.83876
Si -24.2257 8.69426 8.76552
Si -21.2169 7.62964 8.61588
O -24.7381 8.72054 10.344
O -18.9174 -16.6324 8.19451
O -4.66262 25.3645 7.95048
O -20.9102 7.04865 10.0951
O -16.3089 -13.776 8.46054
O -4.31649 21.7144 8.47645
O -23.64 2.73331 12.202
Si -25.2311 3.13337 12.2464
Si -22.0332 2.98862 12.3699
O -23.244 6.12332 13.9164
Si -24.8792 6.01834 13.7382
Si -21.7083 5.55925 13.9906
O -25.3516 6.16787 15.3257
O -16.6624 -18.8721 12.6873
O -7.44018 24.7922 12.2579
O -21.1736 5.79018 15.5028
O -13.8045 -16.2433 12.4292
O -6.44931 21.1402 11.7728
O -23.6567 0.682613 7.77425
Si -25.2819 0.402048 7.57465
Si -22.0093 0.704175 7.6535
O -23.6155 3.01916 9.16184
Si -25.253 3.23396 9.07338
Si -21.986 3.22709 9.33359
O -25.7175 3.29577 10.6666
O -14.6765 -20.4714 8.03589
O -10.2682 23.9441 7.61981
O -21.5474 3.40082 10.8802
O -12.7571 -17.1059 8.30364
O -8.90303 20.329 7.13767
O -23.3538 -2.77019 12.0988
Si -25.0071 -2.68052 12.0932
Si -21.7554 -2.45446 11.8625
O -23.6389 0.329384 13.2873
Si -25.2674 0.197334 13.55
Si -22.0061 0.157444 13.4284
O -25.7727 0.154349 15.1335
O -11.9715 -22.195 12.5223
O -12.7721 22.8105 12.7345
O -21.6196 -0.0293949 14.986
O -9.75514 -19.0379 12.2013
O -10.9803 19.3846 13.243
O -22.9144 -5.26076 7.09628
Si -24.5179 -5.33354 7.40083
Si -21.4763 -4.51744 7.16077
O -23.5491 -1.94574 9.09125
Si -25.0772 -2.50384 8.93072
Si -21.9466 -2.0586 8.85716
O -25.5151 -2.73066 10.5151
O -9.69158 -23.3495 7.85943
O -15.2726 21.3196 8.10706
O -21.3687 -2.5201 10.2939
O -8.36858 -19.5229 8.08009
O -13.1643 18.1918 8.63273
O -21.9998 -7.70186 11.9524
Si -23.5687 -8.07283 12.2442
Si -20.5548 -7.00451 12.2516
O -22.9404 -4.65502 13.995
Si -24.4258 -5.33083 13.7876
Si -21.3042 -4.58411 13.9765
O -24.9364 -5.36443 15.3699
O -6.75013 -24.5154 12.4116
O -17.5881 19.5087 12.4067
O -20.8421 -4.17662 15.476
O -5.19426 -20.7381 12.2191
O -15.062 16.6741 11.8877
O -21.3213 -9.45042 7.33344
Si -22.5741 -10.5045 7.52143
Si -19.7968 -8.89476 7.5309
O -22.1532 -7.35761 9.35229
Si -23.688 -7.92833 9.08967
Si -20.7082 -6.56255 9.25338
O -24.1356 -8.13895 10.6803
O -4.21555 -25.1292 7.81394
O -19.6324 17.4831 7.75162
O -20.1832 -6.42995 10.7807
O -3.69376 -20.9314 7.88957
O -16.7912 14.9823 7.23304
O -19.719 -12.2006 11.9195
Si -21.0241 -13.1827 12.1234
Si -18.1799 -11.6343 12.0232
O -20.8294 -10.2692 13.775
Si -22.4163 -10.738 13.672
Si -19.4098 -9.43249 13.688
O -22.9512 -10.9085 15.2358
O -1.08058 -25.5658 12.4176
O -21.3621 15.2659 12.93
O -19.0724 -9.05135 15.2192
O -0.563291 -21.4249 12.1936
O -18.253 13.0862 13.4485
O -18.484 -14.143 6.9993
Si -19.5621 -15.331 7.36463
Si -17.1788 -13.1913 7.24168
O -19.7301 -12.3017 9.26862
Si -21.1577 -13.053 8.97268
Si -18.5315 -11.2118 9.0505
O -21.5251 -13.413 10.555
O 1.60259 -25.6302 7.78709
O -22.8569 12.8422 8.26056
O -17.8275 -11.2091 10.5045
O 1.42067 -21.3835 7.91155
O -19.4748 11.0571 8.76904
O -16.4606 -16.3437 11.7738
Si -17.507 -17.5849 12.0284
Si -15.1072 -15.4374 11.965
O -17.9523 -14.7646 13.9917
Si -19.3727 -15.5292 13.6553
Si -16.7427 -13.6776 13.8105
O -19.8947 -15.7277 15.225
O 4.63352 -25.4704 12.4294
O -24.0809 10.0991 12.6044
O -16.5434 -13.0389 15.286
O 4.33097 -21.3195 12.3852
O -20.4699 8.71583 12.0973
O -14.8838 -17.8861 6.92661
Si -15.607 -19.3361 7.23024
Si -13.773 -16.7014 7.12374