2520
 Atoms. Timestep: 65678
O 9.98269 1.79926 9.38446
Si 11.6208 1.82212 9.46775
Si 8.55752 1.02987 9.54407
O 10.7157 -1.86429 10.7108
Si 12.23 -1.29486 10.4146
Si 9.10265 -1.66849 10.8168
O 12.81 -1.51136 11.9729
O 12.2715 0.332007 9.94274
O 12.7116 -2.4686 9.2909
O 8.59942 -2.0855 12.2773
O 8.74293 -0.136482 10.618
O 8.46944 -2.44472 9.56921
O 8.6417 4.93502 5.29463
Si 10.2456 5.27806 5.35032
Si 7.36565 3.94444 5.51489
O 10.055 1.45073 6.44959
Si 11.4313 2.34438 6.32135
Si 8.43461 1.28269 6.55804
O 12.0135 2.21342 7.88714
O 11.1617 3.95879 5.88579
O 12.1818 1.31866 5.20252
O 8.11148 0.701924 8.03011
O 7.75373 2.72604 6.48319
O 7.99092 0.505226 5.22151
O 9.34678 3.44854 14.5451
Si 10.9819 3.56506 14.6687
Si 7.96717 2.5864 14.5695
O 10.4465 -0.0807005 15.8646
Si 11.9372 0.563677 15.6433
Si 8.82657 -0.0749475 15.6927
O 12.4241 0.451138 17.2428
O 11.8071 2.15253 15.0877
O 12.6587 -0.576764 14.6239
O 8.2032 0.0453548 17.1642
O 8.36137 1.04666 14.6637
O 8.51974 -1.42907 14.9074
O 8.259 6.51072 10.1163
Si 9.74431 7.09598 10.4644
Si 6.90721 5.80753 10.6958
O 9.31659 3.42852 11.6382
Si 10.796 4.17564 11.5264
Si 7.70489 3.05128 11.5944
O 11.3377 4.0798 13.1126
O 10.6585 5.77024 10.9775
O 11.6822 3.13224 10.5357
O 7.27279 2.74942 13.1212
O 6.80252 4.22058 11.0079
O 7.5816 1.92782 10.4523
O 5.8602 9.35582 6.23413
Si 7.3032 10.1281 6.41031
Si 4.75011 8.28994 6.85598
O 7.86845 6.49762 7.58615
Si 9.12974 7.54738 7.37102
Si 6.36002 5.83449 7.67611
O 9.88861 7.58683 8.86478
O 8.5224 9.06125 6.91023
O 10.1084 6.66343 6.31195
O 6.16115 5.53489 9.25749
O 5.11658 6.7689 7.30556
O 6.34429 4.69996 6.51996
O 7.3446 7.24932 15.2628
Si 8.55202 8.33388 15.7496
Si 5.8498 6.5127 16.1815
O 8.4907 4.93974 17.0899
Si 9.97453 5.6613 16.8953
Si 7.14947 3.96382 17.1687
O 10.5741 5.64442 18.4535
O 9.6628 7.22606 16.3618
O 10.9275 4.76584 15.8455
O 6.91868 3.51166 18.712
O 5.97448 4.9735 16.7219
O 7.18215 2.90241 15.9492
O 5.23913 9.47359 11.0979
Si 6.03143 10.8782 11.5626
Si 4.99199 7.87867 11.9753
O 7.37983 8.02594 13.0469
Si 8.50835 9.12746 12.6471
Si 7.14509 6.45967 13.5408
O 8.95853 9.03772 14.2733
O 7.55121 10.396 12.1005
O 9.5246 8.35868 11.5524
O 5.89851 6.05673 14.5719
O 6.18679 6.79849 12.0131
O 7.69899 5.51481 12.241
O 1.80555 10.7615 7.39039
Si 2.49607 12.2681 7.33845
Si 1.82324 9.13548 7.59517
O 4.41068 10.7853 9.21241
Si 5.50284 11.8129 8.53216
Si 4.21491 9.20427 9.55046
O 6.03968 11.7849 10.1454
O 4.08963 12.468 7.84217
O 6.71776 11.2802 7.49894
O 4.02897 7.95321 10.6341
O 3.38228 8.83599 7.97151
O 5.31883 8.63683 8.41684
O 3.61477 10.0698 16.8895
Si 4.34767 11.5416 16.8495
Si 3.50229 8.43871 17.0252
O 6.62047 9.09091 18.8287
Si 7.15466 10.3598 17.9353
Si 5.83766 7.69663 18.8037
O 7.60034 10.6779 19.5499
O 5.93554 11.337 17.3414
O 8.14342 9.58367 16.8111
O 4.87554 7.57102 20.0805
O 4.91602 7.66237 17.2653
O 6.54938 6.61758 17.7443
O 0.730857 10.9527 12.1631
Si 0.843262 12.5614 12.4753
Si 0.505382 9.42502 12.7288
O 3.14697 10.2889 14.1718
Si 3.73691 11.7596 13.719
Si 3.03901 8.65615 14.0989
O 4.2008 12.1306 15.2907
O 2.42621 12.615 13.0754
O 5.0769 11.6439 12.7149
O 2.91153 8.07821 15.5828
O 1.74764 8.48109 13.1786
O 4.31128 8.02029 13.3977
O -2.67468 10.4472 7.67275
Si -2.85486 12.0746 8.05673
Si -3.18511 9.04384 8.72506
O 0.0452079 10.8234 9.81051
Si 0.0607393 12.4263 9.39496
Si -0.308999 9.20847 9.80614
O 0.459019 13.0272 10.9098
O -1.44477 12.6992 8.71193
O 1.31411 12.8357 8.37576
O 0.0757401 8.75177 11.3091
O -1.87672 8.80574 9.64803
O 0.703642 8.6438 8.66471
O -5.20043 9.15592 77.5313
Si -6.03792 10.5587 77.3701
Si -3.88919 8.18217 77.5474
O -3.17061 10.6232 5.26211
Si -3.51061 12.1793 4.966
Si -2.1712 9.5696 6.03526
O -3.30747 12.6574 6.55628
O -5.04331 11.8106 77.8725
O -2.30236 12.669 77.4144
O -2.84718 8.52244 7.16752
O -2.46153 8.93981 77.9398
O -0.538381 9.75747 6.04805
O -0.813964 10.7165 17.179
Si -0.992337 12.3298 17.6324
Si -1.20579 9.12032 18.0684
O 1.9531 10.5022 19.2249
Si 1.97324 12.1255 18.9088
Si 1.56366 8.90549 19.2974
O 2.28254 12.7001 20.4428
O 0.511386 12.6654 18.2961
O 3.29263 12.3175 17.8964
O 1.66345 8.4697 20.8395
O 0.0584443 8.56487 18.8779
O 2.5348 8.13569 18.2733
O -3.14893 10.5657 13.25
Si -4.38127 11.653 13.3466
Si -2.43722 9.15532 13.6568
O -1.33494 11.1353 14.8344
Si -1.61674 12.7131 14.54
Si -0.243183 10.0656 15.4828
O -1.31626 13.0524 16.1545
O -3.19177 12.6963 13.9579
O -0.363914 13.1 13.5018
O -0.813411 8.84658 16.4756
O -0.864183 9.43562 13.8914
O 1.0158 9.93433 14.3415
O -6.52674 8.2552 8.78052
Si -7.56687 9.4883 9.08071
Si -5.57208 7.00889 9.22673
O -4.56793 9.93833 11.3312
Si -5.06813 11.1009 10.2116
Si -4.29917 8.35061 11.5488
O -4.92504 11.8569 11.7664
O -6.62635 10.7256 9.68921
O -4.09326 12.0465 9.19223
O -2.95769 8.29502 12.4141
O -4.39355 7.58549 10.1495
O -4.52192 9.74191 9.34215
O -8.74585 5.48166 4.73287
Si -9.91335 6.60039 4.98494
Si -7.47505 4.59331 5.3054
O -6.51021 7.95379 6.1882
Si -7.84306 8.92221 5.97131
Si -5.43495 6.69287 6.21662
O -8.05634 9.59537 7.4866
O -9.18782 8.01904 5.51917
O -7.30623 10.0852 4.88107
O -5.10108 6.44812 7.78482
O -6.0549 5.32851 5.63149
O -4.21506 7.13769 5.25256
O -7.61139 7.28116 14.0032
Si -8.82476 8.32829 14.339
Si -5.29747 4.95892 14.7744
O -5.55664 8.59281 15.5002
Si -6.35452 10.0465 15.4184
Si -4.1832 7.70198 15.7135
O -6.4499 10.6671 16.9664
O -7.88094 9.60147 14.8797
O -5.58262 11.1486 14.4053
O -3.83264 7.49101 17.2878
O -4.24369 6.22927 15.002
O -2.98969 8.55328 15.0443
O -8.91254 4.70595 9.61181
Si -10.4677 5.1204 10.0901
Si -7.27477 4.75852 10.51
O -7.80325 6.86813 11.5814
Si -9.14512 7.75431 11.2307
Si -6.68663 6.74823 12.7658
O -9.40897 8.37473 12.767
O -10.2613 6.65884 10.6811
O -8.72383 8.92103 10.1266
O -6.00517 5.40534 13.3721
O -6.36991 6.07485 10.2973
O -5.49817 7.82418 12.5111
O -9.78574 1.25649 5.85064
Si -11.4114 1.5461 5.89485
Si -8.17956 1.56667 6.00741
O -9.96574 3.70822 7.62346
Si -11.2696 4.52911 7.06482
Si -8.38905 3.91762 7.98097
O -11.361 5.01533 8.67782
O -11.826 3.08134 6.41299
O -10.966 5.80494 6.02367
O -7.16612 3.87792 9.10716
O -7.9538 3.14605 6.37418
O -7.90814 5.07854 6.87582
O -9.1771 2.83661 15.2968
Si -10.7152 3.41036 15.407
Si -7.54333 2.73956 15.4184
O -8.40396 6.19864 16.8427
Si -10.0071 6.37089 16.5379
Si -7.11236 5.25308 17.0541
O -10.4463 6.7318 18.1065
O -10.7423 4.99556 15.9382
O -9.85204 7.61955 15.4393
O -7.04711 4.4275 18.433
O -6.77272 4.15214 15.6794
O -5.74369 5.76801 16.2411
O -9.88593 -0.316724 10.7753
Si -11.4922 -0.185666 11.0988
Si -8.31618 -0.247662 11.3159
O -9.33811 2.46484 12.6274
Si -10.9193 2.77856 12.286
Si -7.70337 2.47818 12.4484
O -11.3146 3.21283 13.8572
O -11.646 1.37304 11.7131
O -11.0654 4.06262 11.2331
O -7.13628 2.27736 13.9376
O -7.49791 1.13925 11.5873
O -7.15832 3.85317 11.8214
O -9.69495 -3.83193 6.72333
Si -11.3263 -3.95385 6.90844
Si -8.19306 -3.43206 7.3586
O -9.85251 -0.514186 8.24785
Si -11.4578 -0.861476 7.99458
Si -8.20106 -0.523301 8.24976
O -12.0028 -0.485666 9.53338
O -11.7829 -2.44771 7.52224
O -11.9238 0.304817 6.89046
O -7.72264 -0.462473 9.79924
O -7.66453 -1.93093 7.6917
O -7.69082 0.658173 7.26283
O -9.78334 -1.66651 15.7591
Si -11.3676 -1.96167 16.2798
Si -8.10096 -1.97033 16.5971
O -9.51943 0.739231 17.6623
Si -11.1465 1.00315 17.4746
Si -7.86634 0.817874 17.7711
O -11.7666 1.31188 18.9858
O -11.7373 -0.445046 16.8821
O -11.3849 2.30816 16.466
O -7.48519 1.18455 19.2969
O -7.40803 -0.658293 17.3056
O -7.19863 1.78732 16.6695
O -9.55637 -4.54498 11.6169
Si -10.8688 -5.48741 12.0474
Si -8.60439 -3.27311 12.6059
O -9.93663 -2.34548 13.3473
Si -11.5788 -2.62278 13.1977
Si -9.24254 -0.877407 14.0923
O -12.0033 -2.31888 14.7776
O -11.7295 -4.19811 12.6778
O -11.9993 -1.40446 12.1281
O -7.94483 -1.30309 15.0676
O -8.27334 -1.56234 12.5662
O -9.10171 0.237612 12.8106
O -7.99038 -7.50004 7.4928
Si -9.04171 -8.73335 7.81202
Si -7.00039 -6.28566 8.03875
O -9.50787 -5.87264 9.60699
Si -10.9246 -6.40706 8.99132
Si -8.65386 -4.52366 9.98777
O -11.3919 -6.15769 10.601
O -10.3844 -7.8809 8.37528
O -11.5548 -5.2777 7.92299
O -7.89049 -3.56212 11.1196
O -7.71049 -4.82958 8.43534
O -9.01235 -3.36964 8.83936
O -4.8416 -9.65302 76.8505
Si -5.87809 -10.8756 77.31
Si -4.1262 -8.23035 77.2928
O -7.51051 -7.52806 4.97163
Si -8.36158 -8.92701 4.70492
Si -6.24057 -6.48806 5.10987
O -9.04815 -9.21896 6.20439
O -7.42261 -10.2079 77.6353
O -9.45714 -8.286 77.0972
O -6.25929 -5.95167 6.62876
O -4.85388 -7.24346 4.84611
O -6.37434 -5.34762 77.4611
O -8.33691 -6.21044 17.2826
Si -9.78951 -6.98452 17.3013
Si -7.27549 -4.96236 17.3818
O -10.099 -3.94646 19.2623
Si -11.4091 -4.44269 18.4335
Si -8.77542 -3.06767 19.1652
O -11.9041 -4.27542 20.0579
O -10.9956 -5.943 17.8181
O -11.7449 -3.2288 17.3236
O -7.89232 -3.19753 20.4784
O -7.96002 -3.50111 17.6476
O -8.85084 -1.77732 18.1215
O -6.51674 -8.26797 12.3791
Si -7.30097 -9.63131 13.0207
Si -5.14561 -7.02854 13.0335
O -7.92926 -6.4527 14.3191
Si -9.29365 -7.36935 14.1736
Si -6.97108 -5.11375 14.4066
O -9.93979 -7.45291 15.7085
O -8.64942 -8.83205 13.6437
O -10.4 -6.66526 13.1356
O -6.57267 -4.90088 15.9452
O -5.68662 -5.58171 13.5661
O -7.7026 -3.82533 13.815
O -4.47258 -10.3163 8.06692
Si -4.60415 -11.9034 8.66477
Si -4.83585 -8.68962 8.92675
O -6.29993 -9.02978 9.86524
Si -7.1865 -10.4378 9.88824
Si -6.81403 -7.56489 10.6886
O -7.54374 -10.4266 11.5409
O -6.12966 -11.6211 9.33582
O -8.42011 -9.91159 8.85099
O -5.57393 -6.76677 11.4577
O -5.83507 -7.25512 9.0742
O -7.66158 -6.63714 9.59235
O -0.985818 -10.7438 4.70092
Si -0.811275 -12.3845 4.7624
Si -1.58208 -9.21731 4.84333
O -3.43465 -11.1509 6.15903
Si -3.85196 -12.643 5.66721
Si -4.15036 -9.69553 6.23435
O -4.43417 -12.7796 7.24387
O -2.29099 -13.031 5.19886
O -5.04483 -12.1977 4.54874
O -4.41324 -8.46186 7.32711
O -3.21874 -9.0342 4.97411
O -5.44485 -10.0933 5.27556
O -2.4258 -10.6852 13.9778
Si -2.6265 -12.2986 14.1456
Si -3.06612 -9.20524 14.2975
O -4.6055 -9.62219 15.1988
Si -5.36634 -11.1059 15.2663
Si -5.35525 -8.11257 15.7435
O -5.89935 -11.3294 16.8516
O -4.18441 -12.1847 14.7664
O -6.5562 -10.6809 14.1253
O -4.59427 -7.60888 17.0693
O -4.20459 -7.89693 14.276
O -6.10677 -7.31934 14.4627
O 0.743713 -10.2562 9.97493
Si 0.833881 -11.8873 10.0937
Si -0.0222462 -8.81907 10.0921
O -2.95727 -10.8067 11.2767
Si -2.30967 -12.287 10.9767
Si -2.84187 -9.19484 11.2267
O -2.5196 -12.8221 12.5584
O -0.69516 -12.4509 10.5229
O -3.46845 -12.5092 9.75872
O -2.79146 -8.67604 12.7566
O -1.60192 -8.87244 10.265
O -3.90903 -8.481 10.2483
O 3.95582 -8.99494 5.95899
Si 4.37192 -10.5865 6.02384
Si 3.0296 -7.64567 6.04933
O 0.66515 -10.3076 7.17803
Si 1.45345 -11.7381 6.96615
Si 0.359025 -8.70158 7.1103
O 1.2734 -12.3084 8.53336
O 3.06553 -11.5189 6.53302
O 0.467859 -12.5271 5.84968
O 0.20242 -8.18801 8.62827
O 1.47813 -7.82997 6.38122
O -0.925582 -8.54661 6.15201
O 2.51505 -9.67055 15.3746
Si 2.72886 -11.3045 15.4005
Si 1.7244 -8.23503 15.3461
O -0.887771 -10.66 16.6161
Si -0.274762 -12.1566 16.3297
Si -0.996488 -9.03306 16.5595
O -0.430061 -12.77 17.8794
O 1.33144 -12.107 15.8592
O -1.38772 -12.7237 15.1995
O -1.17839 -8.57402 18.1031
O 0.172994 -8.29692 15.7415
O -2.21758 -8.65762 15.575
O 5.58508 -8.40872 11.1073
Si 6.03642 -9.98086 11.2124
Si 4.47966 -7.21615 11.2155
O 2.21494 -9.91845 12.4904
Si 3.15965 -11.2417 12.2361
Si 1.89178 -8.32953 12.3371
O 3.15486 -11.7308 13.8401
O 4.72458 -10.9454 11.6684
O 2.10715 -12.0527 11.1906
O 1.84397 -7.71077 13.8235
O 2.98335 -7.74869 11.3224
O 0.59783 -8.13971 11.406
O 8.88465 -6.85114 6.84874
Si 9.57883 -8.30293 7.09959
Si 7.62265 -5.93913 7.38143
O 5.58529 -8.24741 8.2194
Si 6.62985 -9.54895 8.09387
Si 4.88761 -6.73433 8.26376
O 6.54394 -10.2094 9.63333
O 8.25492 -9.24029 7.65128
O 5.72013 -10.4999 7.03393
O 4.55807 -6.42087 9.81331
O 6.03877 -5.76787 7.72499
O 3.67169 -6.72338 7.20671
O 7.20634 -7.7283 16.3057
Si 7.83636 -9.22416 16.5362
Si 6.10681 -6.60794 16.8581
O 3.94417 -9.04707 17.7458
Si 4.9192 -10.3851 17.5745
Si 3.39119 -7.49058 17.7503
O 4.82494 -10.9431 19.1519
O 6.52883 -10.1392 17.106
O 4.00923 -11.3087 16.4975
O 2.96784 -7.07281 19.2429
O 4.57724 -6.50523 17.3668
O 2.34389 -7.35088 16.5397
O 9.31779 -6.0412 11.8427
Si 10.63 -6.96417 12.3055
Si 8.27078 -5.00822 12.9155
O 6.8209 -7.89579 13.6964
Si 8.13647 -8.87795 13.3902
Si 5.87691 -6.54804 13.8064
O 8.24374 -9.51232 14.9387
O 9.63036 -8.21961 12.9033
O 7.33586 -9.8639 12.278
O 5.58126 -6.21888 15.3546
O 6.74276 -5.31846 13.2835
O 4.74501 -6.55192 12.6608
O 10.6046 -3.13763 8.24538
Si 12.1714 -3.66011 8.20795
Si 8.96957 -3.2589 8.28425
O 10.1591 -5.66641 9.60134
Si 11.3969 -6.64523 9.21304
Si 8.60898 -5.69754 10.1144
O 11.4112 -7.1548 10.8254
O 12.257 -5.28365 8.66904
O 10.8101 -7.82209 8.15649
O 7.91166 -4.73479 11.2908
O 8.45533 -4.78222 8.53349
O 7.76774 -6.60629 8.96692
O 10.2818 0.172973 77.5197
Si 11.9376 0.0586672 77.5893
Si 8.6822 -0.23426 77.4608
O 10.5943 -2.66627 5.4391
Si 12.1321 -3.06171 5.05318
Si 8.99235 -2.8775 5.33976
O 12.6465 -3.42531 6.61389
O 12.481 -1.48732 4.51687
O 12.2574 -4.36927 77.4689
O 8.48662 -2.73283 6.85279
O 8.4537 -1.78092 77.8071
O 8.67161 -4.37457 4.90799
O 10.0725 -5.27692 17.2295
Si 11.6812 -5.54343 17.5904
Si 8.62668 -5.36402 18.3635
O 8.71112 -7.06019 18.9196
Si 10.0057 -8.08551 18.6736
Si 7.09002 -7.57266 19.4784
O 10.0996 -8.6414 20.2473
O 11.2713 -7.08741 18.1727
O 9.181 -9.05447 17.5493
O 6.86986 -6.9353 20.9533
O 7.08495 -6.10711 18.2592
O 6.0957 -7.83553 18.1175
O 10.7444 -1.75324 13.5974
Si 12.3847 -1.86018 13.5521
Si 9.20644 -2.28545 13.7503
O 10.7919 -4.30565 15.147
Si 12.1381 -4.93031 14.4797
Si 9.29079 -4.76254 15.6005
O 12.4053 -5.45366 16.0732
O 12.7568 -3.44924 13.963
O 11.676 -6.14697 13.3804
O 8.18843 -4.72893 16.858
O 8.93771 -3.84117 14.0675
O 8.74151 -5.80444 14.3747
O 9.98276 1.79928 24.0827
Si 11.6209 1.82215 24.166
Si 8.5576 1.02985 24.2423
O 10.7158 -1.86426 25.409
Si 12.2301 -1.29484 25.1128
Si 9.10271 -1.66849 25.515
O 12.8101 -1.51134 26.6711
O 12.2716 0.332041 24.641
O 12.7117 -2.4686 23.9892
O 8.59948 -2.08545 26.9756
O 8.74299 -0.136484 25.3162
O 8.46949 -2.44473 24.2675
O 8.64172 4.93495 19.9929
Si 10.2456 5.27799 20.0486
Si 7.36569 3.94434 20.2132
O 10.0551 1.45064 21.1479
Si 11.4314 2.34432 21.0196
Si 8.43469 1.2826 21.2563
O 12.0136 2.21341 22.5854
O 11.1617 3.95872 20.584
O 12.1818 1.31861 19.9008
O 8.11156 0.701866 22.7284
O 7.75383 2.72596 21.1815
O 7.99096 0.505161 19.9198
O 9.3469 3.44862 29.2433
Si 10.982 3.56512 29.367
Si 7.96731 2.58646 29.2678
O 10.4467 -0.0806628 30.5629
Si 11.9373 0.563742 30.3415
Si 8.82672 -0.074887 30.391
O 12.4243 0.451212 31.9411
O 11.8072 2.15259 29.786
O 12.6588 -0.576714 29.3221
O 8.20333 0.0454697 31.8625
O 8.36158 1.04674 29.3619
O 8.51985 -1.429 29.6057
O 8.25914 6.51071 24.8146
Si 9.74444 7.09601 25.1627
Si 6.90738 5.80748 25.394
O 9.31667 3.4285 26.3365
Si 10.796 4.17567 26.2247
Si 7.70498 3.05121 26.2927
O 11.3378 4.07985 27.8108
O 10.6586 5.77026 25.6757
O 11.6823 3.13229 25.2339
O 7.2729 2.7494 27.8195
O 6.80264 4.22051 25.7061
O 7.58167 1.92773 25.1506
O 5.86018 9.35581 20.9325
Si 7.30321 10.128 21.1086
Si 4.75011 8.28987 21.5543
O 7.86847 6.49756 22.2844
Si 9.12976 7.5473 22.0693
Si 6.36004 5.8344 22.3744
O 9.88866 7.58685 23.563
O 8.52241 9.06115 21.6084
O 10.1084 6.66334 21.0102
O 6.16127 5.53478 23.9558
O 5.11659 6.76884 22.0039
O 6.34431 4.69987 21.2182
O 7.34469 7.24925 29.961
Si 8.55209 8.33383 30.4479
Si 5.84991 6.51271 30.8798
O 8.4908 4.93979 31.7881
Si 9.97465 5.66132 31.5936
Si 7.14958 3.96386 31.8669
O 10.5743 5.64447 33.1518
O 9.6629 7.22607 31.0601
O 10.9276 4.76589 30.5437
O 6.91876 3.51173 33.4103
O 5.97457 4.97351 31.4202
O 7.18227 2.90245 30.6475
O 5.23927 9.47355 25.7961
Si 6.03151 10.8782 26.2608
Si 4.99218 7.87863 26.6735
O 7.37996 8.02583 27.7452
Si 8.50843 9.1274 27.3454
Si 7.14521 6.45955 28.2391
O 8.95861 9.03767 28.9716
O 7.55128 10.396 26.7988
O 9.52473 8.35868 26.2507
O 5.89862 6.05665 29.2702
O 6.18695 6.79841 26.7114
O 7.69912 5.5147 26.9393
O 1.80543 10.7615 22.0889
Si 2.49599 12.268 22.0366
Si 1.82322 9.13544 22.2935
O 4.41073 10.7853 23.9107
Si 5.5028 11.8129 23.2304
Si 4.21501 9.20426 24.2487
O 6.03966 11.7848 24.8436
O 4.08963 12.4678 22.5401
O 6.71781 11.2802 22.1973
O 4.02914 7.95316 25.3323
O 3.38229 8.83595 22.6698
O 5.31886 8.63684 23.1151
O 3.61474 10.0697 31.5879
Si 4.34764 11.5415 31.5478
Si 3.50238 8.43863 31.7234
O 6.62051 9.09096 33.527
Si 7.15469 10.3599 32.6336
Si 5.83771 7.69668 33.5019
O 7.6004 10.678 34.2482
O 5.93553 11.3369 32.0396
O 8.14345 9.58363 31.5094
O 4.87553 7.57118 34.7788
O 4.91612 7.66237 31.9635
O 6.54949 6.61761 32.4426
O 0.730883 10.9527 26.8615
Si 0.84326 12.5615 27.1736
Si 0.505438 9.42499 27.4272
O 3.14695 10.2887 28.87
Si 3.73688 11.7595 28.4172
Si 3.03912 8.65601 28.7971
O 4.20074 12.1305 29.989
O 2.42621 12.615 27.7737
O 5.07689 11.6438 27.4131
O 2.91173 8.07802 30.281
O 1.74766 8.48099 27.8769
O 4.31144 8.02026 28.0959
O -2.67465 10.4472 22.3709
Si -2.85481 12.0746 22.7549
Si -3.18509 9.04386 23.4233
O 0.0452754 10.8233 24.5089
Si 0.060786 12.4262 24.0932
Si -0.308997 9.20845 24.5045
O 0.459149 13.0271 25.6081
O -1.44476 12.6991 23.4103
O 1.31408 12.8356 23.0739
O 0.0757859 8.75174 26.0075
O -1.87673 8.80579 24.3463
O 0.703708 8.64376 23.3632
O -5.20044 9.15594 18.7383
Si -6.03791 10.5588 18.5771
Si -3.88923 8.18215 18.7544
O -3.17055 10.6231 19.9604
Si -3.51042 12.1792 19.6641
Si -2.17111 9.56952 20.7335
O -3.30719 12.6574 21.2544
O -5.04319 11.8106 19.0795
O -2.30227 12.6688 18.6209
O -2.84714 8.52242 21.8658
O -2.46153 8.93973 19.1467
O -0.53831 9.75759 20.7465
O -0.81398 10.7166 31.8773
Si -0.992386 12.3299 32.3306
Si -1.20573 9.12033 32.7667
O 1.95313 10.5022 33.9233
Si 1.97323 12.1254 33.6071
Si 1.56377 8.90546 33.9956
O 2.28254 12.7001 35.1411
O 0.511395 12.6654 32.9943
O 3.29262 12.3174 32.5947
O 1.66367 8.4697 35.5376
O 0.0585345 8.56486 33.5761
O 2.53482 8.13561 32.9715
O -3.14894 10.5655 27.9483
Si -4.38126 11.6529 28.0448
Si -2.43716 9.15517 28.3551
O -1.33488 11.1354 29.5326
Si -1.61679 12.7132 29.2382
Si -0.243196 10.0657 30.1811
O -1.31638 13.0524 30.8527
O -3.19182 12.6962 28.6562
O -0.363967 13.1001 28.2
O -0.813383 8.84664 31.1738
O -0.864153 9.43562 28.5897
O 1.01585 9.93423 29.0399
O -6.52674 8.25522 23.4788
Si -7.56688 9.4883 23.779
Si -5.57214 7.00886 23.925
O -4.56801 9.93824 26.0295
Si -5.06811 11.1009 24.9099
Si -4.29915 8.35053 26.247
O -4.92502 11.8569 26.4647
O -6.62636 10.7256 24.3875
O -4.09327 12.0464 23.8904
O -2.95764 8.29494 27.1123
O -4.39356 7.58551 24.8477
O -4.5219 9.7419 24.0404
O -8.74584 5.48169 19.4311
Si -9.91333 6.60041 19.6832
Si -7.47507 4.59328 20.0036
O -6.51018 7.95373 20.8865
Si -7.84301 8.9222 20.6696
Si -5.43495 6.69279 20.9149
O -8.05632 9.59535 22.1849
O -9.18777 8.01906 20.2174
O -7.30616 10.0852 19.5794
O -5.10117 6.44802 22.4831
O -6.0549 5.32844 20.3297
O -4.21508 7.13764 19.9508
O -7.61144 7.28114 28.7015
Si -8.82481 8.32829 29.0372
Si -5.29744 4.95887 29.4727
O -5.55668 8.59276 30.1986
Si -6.35457 10.0465 30.1166
Si -4.18323 7.70192 30.4118
O -6.44991 10.6671 31.6647
O -7.88099 9.60144 29.578
O -5.58266 11.1485 29.1036
O -3.83265 7.49095 31.9861
O -4.24371 6.22927 29.7002
O -2.98961 8.55308 29.7426
O -8.91258 4.70593 24.3101
Si -10.4677 5.1204 24.7884
Si -7.27483 4.75851 25.2083
O -7.80327 6.86807 26.2797
Si -9.14513 7.75427 25.9289
Si -6.68665 6.74817 27.4641
O -9.409 8.37472 27.4652
O -10.2613 6.65883 25.3794
O -8.72384 8.92101 24.8249
O -6.00522 5.40527 28.0704
O -6.37003 6.07489 24.9956
O -5.49811 7.82404 27.2094
O -9.78575 1.25647 20.5489
Si -11.4114 1.54611 20.5932
Si -8.17956 1.56665 20.7057
O -9.96575 3.70824 22.3217
Si -11.2697 4.52914 21.7631
Si -8.38906 3.91763 22.6792
O -11.361 5.01535 23.3761
O -11.826 3.08136 21.1113
O -10.966 5.80499 20.722
O -7.16614 3.87794 23.8054
O -7.9538 3.14603 21.0724
O -7.90817 5.07853 21.5741
O -9.17706 2.83664 29.995
Si -10.7152 3.41038 30.1053
Si -7.54329 2.73956 30.1167
O -8.40392 6.19866 31.541
Si -10.007 6.37091 31.2361
Si -7.11233 5.25309 31.7523
O -10.4463 6.73182 32.8048
O -10.7422 4.99559 30.6364
O -9.85207 7.61956 30.1375
O -7.04709 4.42752 33.1313
O -6.77269 4.15214 30.3776
O -5.74362 5.76798 30.9394
O -9.88595 -0.316713 25.4735
Si -11.4923 -0.18566 25.7971
Si -8.3162 -0.247685 26.0141
O -9.33812 2.46484 27.3257
Si -10.9193 2.77856 26.9843
Si -7.70338 2.47814 27.1467
O -11.3145 3.21285 28.5555
O -11.646 1.37305 26.4114
O -11.0655 4.06262 25.9314
O -7.13627 2.27733 28.6359
O -7.49793 1.13922 26.2855
O -7.15834 3.85314 26.5197
O -9.69497 -3.83194 21.4216
Si -11.3263 -3.95386 21.6067
Si -8.19308 -3.43206 22.0569
O -9.85252 -0.514201 22.9461
Si -11.4578 -0.861486 22.6928
Si -8.20107 -0.523317 22.948
O -12.0029 -0.485668 24.2316
O -11.7829 -2.44772 22.2205
O -11.9238 0.304821 21.5887
O -7.72266 -0.462536 24.4975
O -7.66455 -1.93094 22.39
O -7.69082 0.658163 21.9611
O -9.78334 -1.66652 30.4574
Si -11.3676 -1.96167 30.9781
Si -8.10096 -1.97034 31.2954
O -9.51942 0.739227 32.3605
Si -11.1464 1.00316 32.1728
Si -7.86633 0.817866 32.4694
O -11.7666 1.31189 33.684
O -11.7373 -0.445041 31.5804
O -11.3849 2.30818 31.1643
O -7.48518 1.18455 33.9952
O -7.40803 -0.6583 32.0038
O -7.19861 1.78732 31.3678
O -9.55639 -4.54498 26.3152
Si -10.8689 -5.48741 26.7457
Si -8.60442 -3.27311 27.3042
O -9.93665 -2.34549 28.0456
Si -11.5789 -2.62278 27.896
Si -9.24256 -0.877416 28.7906
O -12.0033 -2.31887 29.4758
O -11.7295 -4.19811 27.3761
O -11.9993 -1.40445 26.8264
O -7.94484 -1.3031 29.7659
O -8.27336 -1.56235 27.2645
O -9.10174 0.237599 27.5089
O -7.9904 -7.50005 22.1911
Si -9.04172 -8.73336 22.5103
Si -7.00041 -6.28566 22.737
O -9.50789 -5.87265 24.3053
Si -10.9246 -6.40707 23.6896
Si -8.65388 -4.52366 24.686
O -11.3919 -6.1577 25.2993
O -10.3844 -7.88092 23.0735
O -11.5548 -5.27772 22.6212
O -7.89052 -3.56211 25.8179
O -7.71051 -4.82958 23.1336
O -9.01237 -3.36965 23.5376
O -4.8416 -9.65299 18.0575
Si -5.87808 -10.8756 18.517
Si -4.1262 -8.23033 18.4997
O -7.5105 -7.52807 19.6699
Si -8.36159 -8.92701 19.4032
Si -6.24057 -6.48807 19.8082
O -9.04815 -9.21896 20.9026
O -7.4226 -10.2079 18.8423
O -9.45715 -8.28598 18.3041
O -6.2593 -5.95168 21.327
O -4.85388 -7.24346 19.5444
O -6.37433 -5.34762 18.668
O -8.33692 -6.21044 31.9808
Si -9.78951 -6.98452 31.9996
Si -7.27549 -4.96236 32.08
O -10.099 -3.94646 33.9606
Si -11.4091 -4.4427 33.1317
Si -8.77542 -3.06767 33.8635
O -11.9041 -4.27542 34.7562
O -10.9956 -5.94301 32.5164
O -11.7449 -3.22881 32.0219
O -7.89231 -3.19752 35.1767
O -7.96002 -3.50111 32.3459
O -8.85084 -1.77731 32.8198
O -6.51678 -8.26798 27.0773
Si -7.301 -9.63132 27.7189
Si -5.14566 -7.02854 27.7318
O -7.92929 -6.4527 29.0173
Si -9.29367 -7.36936 28.8719
Si -6.97111 -5.11374 29.1049
O -9.9398 -7.45292 30.4068
O -8.64945 -8.83206 28.3419
O -10.4001 -6.66526 27.8339
O -6.57269 -4.90087 30.6434
O -5.68666 -5.58171 28.2644
O -7.70263 -3.82533 28.5133
O -4.47259 -10.3163 22.7652
Si -4.60415 -11.9034 23.363
Si -4.83587 -8.68962 23.625
O -6.29995 -9.0298 24.5635
Si -7.18651 -10.4379 24.5865
Si -6.81406 -7.56491 25.3869
O -7.54376 -10.4266 26.2392
O -6.12966 -11.6211 24.0341
O -8.42012 -9.9116 23.5492
O -5.57397 -6.76678 26.156
O -5.83509 -7.25512 23.7725
O -7.6616 -6.63714 24.2906
O -0.985827 -10.7438 19.3991
Si -0.811258 -12.3845 19.4607
Si -1.58208 -9.2173 19.5416
O -3.43464 -11.1509 20.8573
Si -3.85194 -12.643 20.3655
Si -4.15035 -9.69552 20.9326
O -4.43416 -12.7796 21.9421
O -2.29097 -13.0309 19.8971
O -5.04481 -12.1977 19.247
O -4.41324 -8.46185 22.0254
O -3.21873 -9.03419 19.6724
O -5.44484 -10.0933 19.9738
O -2.42584 -10.6852 28.6761
Si -2.62653 -12.2986 28.8438
Si -3.06618 -9.20524 28.9958
O -4.60555 -9.6222 29.8971
Si -5.36637 -11.1059 29.9645
Si -5.35531 -8.11258 30.4418
O -5.89936 -11.3294 31.5499
O -4.18444 -12.1847 29.4646
O -6.55624 -10.6809 28.8236
O -4.5943 -7.60889 31.7675
O -4.20465 -7.89694 28.9743
O -6.10683 -7.31935 29.1609
O 0.743693 -10.2562 24.6732
Si 0.833882 -11.8872 24.792
Si -0.0222347 -8.81899 24.7904
O -2.95724 -10.8066 25.9749
Si -2.30966 -12.2869 25.6749
Si -2.84186 -9.19479 25.9249
O -2.51961 -12.822 27.2567
O -0.69515 -12.4509 25.2212
O -3.46844 -12.5092 24.457
O -2.79149 -8.67602 27.4549
O -1.60191 -8.87228 24.9633
O -3.90905 -8.48099 24.9466
O 3.95587 -8.99492 20.6573
Si 4.37196 -10.5865 20.7221
Si 3.02964 -7.64566 20.7476
O 0.665169 -10.3076 21.8763
Si 1.45347 -11.738 21.6644
Si 0.359043 -8.70157 21.8085
O 1.2734 -12.3084 23.2316
O 3.06555 -11.5189 21.2313
O 0.467878 -12.5271 20.5479
O 0.202436 -8.18796 23.3265
O 1.47815 -7.82999 21.0794
O -0.925573 -8.54661 20.8503
O 2.51503 -9.67053 30.0728
Si 2.72883 -11.3045 30.0988
Si 1.72434 -8.23503 30.0443
O -0.887869 -10.6601 31.3143
Si -0.27479 -12.1566 31.0279
Si -0.996528 -9.0331 31.2578
O -0.430065 -12.77 32.5776
O 1.33141 -12.107 30.5574
O -1.38775 -12.7237 29.8978
O -1.17833 -8.57403 32.8014
O 0.172908 -8.29704 30.4396
O -2.21767 -8.65765 30.2732
O 5.58513 -8.40864 25.8056
Si 6.03644 -9.98079 25.9107
Si 4.47973 -7.21605 25.9138
O 2.21495 -9.91838 27.1886
Si 3.15966 -11.2417 26.9344
Si 1.89183 -8.32945 27.0353
O 3.15484 -11.7308 28.5384
O 4.72459 -10.9453 26.3667
O 2.10716 -12.0526 25.8889
O 1.84398 -7.71073 28.5217
O 2.98342 -7.74858 26.0206
O 0.597883 -8.13961 26.1042
O 8.88469 -6.85114 21.547
Si 9.57887 -8.30294 21.7979
Si 7.62268 -5.93914 22.0797
O 5.58532 -8.24738 22.9177
Si 6.62988 -9.54893 22.7922
Si 4.88765 -6.7343 22.962
O 6.54397 -10.2093 24.3316
O 8.25494 -9.24029 22.3496
O 5.72016 -10.4999 21.7322
O 4.55816 -6.4208 24.5116
O 6.03881 -5.76787 22.4232
O 3.6717 -6.72338 21.905
O 7.2062 -7.72823 31.004
Si 7.83628 -9.22407 31.2345
Si 6.1067 -6.60787 31.5564
O 3.94408 -9.04706 32.444
Si 4.91914 -10.385 32.2728
Si 3.39107 -7.49058 32.4485
O 4.82488 -10.943 33.8501
O 6.52877 -10.1392 31.8043
O 4.00919 -11.3087 31.1958
O 2.96771 -7.07281 33.9411
O 4.57709 -6.5052 32.065
O 2.34374 -7.3509 31.2379
O 9.31781 -6.04118 26.541
Si 10.63 -6.96413 27.0038
Si 8.27081 -5.00814 27.6137
O 6.82093 -7.89565 28.3948
Si 8.13645 -8.87786 28.0885
Si 5.87694 -6.5479 28.5047
O 8.2437 -9.51223 29.637
O 9.63036 -8.21955 27.6016
O 7.33586 -9.86382 26.9764
O 5.58127 -6.21871 30.0529
O 6.7428 -5.31834 27.9818
O 4.74505 -6.55181 27.3591
O 10.6047 -3.13766 22.9437
Si 12.1715 -3.66013 22.9062
Si 8.9696 -3.25893 22.9825
O 10.1591 -5.66645 24.2996
Si 11.3969 -6.64524 23.9113
Si 8.60897 -5.69759 24.8126
O 11.4112 -7.15479 25.5236
O 12.257 -5.28367 23.3673
O 10.8101 -7.82212 22.8548
O 7.91166 -4.7348 25.9891
O 8.45535 -4.78225 23.2317
O 7.76774 -6.60632 23.6651
O 10.2818 0.172917 18.7266
Si 11.9376 0.0586151 18.7962
Si 8.68222 -0.234322 18.6677
O 10.5943 -2.66631 20.1374
Si 12.1322 -3.06176 19.7515
Si 8.9924 -2.87754 20.038
O 12.6466 -3.42535 21.3122
O 12.481 -1.48737 19.2151
O 12.2574 -4.36931 18.6758
O 8.48667 -2.73285 21.5511
O 8.45374 -1.78098 19.014
O 8.67166 -4.37461 19.6063
O 10.0724 -5.27684 31.9277
Si 11.6812 -5.54336 32.2887
Si 8.62663 -5.36391 33.0618
O 8.71106 -7.06006 33.6179
Si 10.0056 -8.08541 33.3719
Si 7.08997 -7.5725 34.1767
O 10.0995 -8.6413 34.9455
O 11.2712 -7.08733 32.871
O 9.18092 -9.05437 32.2476
O 6.86983 -6.93513 35.6516
O 7.08488 -6.10699 32.9575
O 6.09562 -7.83541 32.8158
O 10.7445 -1.7532 28.2957
Si 12.3847 -1.86014 28.2503
Si 9.20651 -2.28539 28.4486
O 10.7919 -4.3056 29.8453
Si 12.1381 -4.93027 29.178
Si 9.2908 -4.76249 30.2987
O 12.4053 -5.45361 30.7715
O 12.7569 -3.4492 28.6613
O 11.6761 -6.14692 28.0787
O 8.18841 -4.72886 31.5562
O 8.93776 -3.84111 28.7657
O 8.7415 -5.80437 29.073
O 9.9828 1.79936 38.781
Si 11.6209 1.8222 38.8643
Si 8.55764 1.02996 38.9406
O 10.7158 -1.86422 40.1073
Si 12.2301 -1.2948 39.8111
Si 9.10274 -1.6684 40.2133
O 12.8101 -1.51131 41.3694
O 12.2716 0.332078 39.3393
O 12.7117 -2.46854 38.6875
O 8.59948 -2.08544 41.6738
O 8.74308 -0.136371 40.0146
O 8.46952 -2.44457 38.9657
O 8.64182 4.93503 34.6912
Si 10.2457 5.27807 34.7468
Si 7.3658 3.94442 34.9114
O 10.0552 1.45072 35.8462
Si 11.4315 2.3444 35.7179
Si 8.43478 1.28269 35.9546
O 12.0137 2.21348 37.2837
O 11.1618 3.9588 35.2823
O 12.1819 1.31868 34.5991
O 8.11163 0.701958 37.4267
O 7.75395 2.72606 35.8797
O 7.99106 0.505267 34.6181
O 9.34682 3.4486 43.9416
Si 10.982 3.56512 44.0653
Si 7.96721 2.58647 43.9661
O 10.4466 -0.0806485 45.2611
Si 11.9372 0.563729 45.0398
Si 8.82658 -0.0748937 45.0893
O 12.4241 0.451179 46.6394
O 11.8071 2.15258 44.4843
O 12.6587 -0.576711 44.0204
O 8.20319 0.0453915 46.5608
O 8.3614 1.04673 44.0602
O 8.51976 -1.429 44.3039
O 8.25901 6.51087 39.5129
Si 9.74436 7.09603 39.861
Si 6.90725 5.80759 40.0923
O 9.31665 3.42862 41.0348
Si 10.7961 4.17571 40.923
Si 7.70495 3.05135 40.991
O 11.3377 4.07986 42.5091
O 10.6586 5.7703 40.374
O 11.6823 3.13232 39.9322
O 7.27285 2.74948 42.5178
O 6.80256 4.22064 40.4045
O 7.58169 1.92791 39.8488
O 5.86032 9.35586 35.6308
Si 7.30332 10.1281 35.8069
Si 4.75024 8.28993 36.2526
O 7.86855 6.49756 36.9827
Si 9.1298 7.54735 36.7676
Si 6.36011 5.83442 37.0727
O 9.88867 7.58684 38.2613
O 8.52249 9.06123 36.3068
O 10.1085 6.66342 35.7085
O 6.16126 5.53481 38.654
O 5.1167 6.76887 36.7021
O 6.3444 4.6999 35.9165
O 7.34461 7.24934 44.6593
Si 8.55204 8.33389 45.1461
Si 5.84979 6.51277 45.5781
O 8.4907 4.93981 46.4864
Si 9.97454 5.66134 46.2919
Si 7.14947 3.96389 46.5652
O 10.5741 5.64446 47.85
O 9.66282 7.22609 45.7584
O 10.9275 4.76589 45.242
O 6.91865 3.51173 48.1085
O 5.97446 4.97356 46.1184
O 7.18216 2.90248 45.3458
O 5.23923 9.47358 40.4944
Si 6.0315 10.8782 40.9592
Si 4.99202 7.87868 41.3719
O 7.37991 8.02593 42.4434
Si 8.50843 9.12747 42.0437
Si 7.14512 6.45968 42.9374
O 8.9586 9.03771 43.6699
O 7.55127 10.396 41.4971
O 9.52469 8.35873 40.949
O 5.8985 6.05681 43.9684
O 6.1868 6.79848 41.4097
O 7.69906 5.51486 41.6376
O 1.80555 10.7616 36.7871
Si 2.49606 12.2681 36.7348
Si 1.82332 9.13548 36.9917
O 4.41076 10.7853 38.609
Si 5.50284 11.8129 37.9287
Si 4.21502 9.20427 38.947
O 6.03969 11.7849 39.5419
O 4.08968 12.468 37.2384
O 6.71786 11.2802 36.8956
O 4.029 7.95325 40.0307
O 3.38237 8.836 37.368
O 5.31891 8.63681 37.8134
O 3.61479 10.0699 46.2861
Si 4.34769 11.5417 46.2461