2688
 Atoms. Timestep: 63032
O 23.6252 2.34 1.54996
Si 25.2058 2.79205 1.5419
Si 21.9988 2.52094 1.67158
O 23.7938 0.110499 2.87978
Si 25.4207 -0.121964 2.85772
Si 22.2144 -0.298078 2.71017
O 25.9343 -0.221865 4.4332
O 12.3083 22.4016 2.15909
O 12.5427 -22.5076 2.75476
O 21.7789 -0.711494 4.215
O 10.199 18.6766 2.18721
O 10.5049 -18.7456 2.75335
O 23.3145 4.61922 33.8411
Si 24.747 5.41177 -3.46845
Si 21.687 4.44182 33.7705
O 23.616 3.09458 -1.44603
Si 25.2367 2.85444 -1.6268
Si 22.0491 2.63634 -1.35517
O 25.6994 2.95325 -0.0345585
O 9.72554 23.6526 -2.49048
O 14.9772 -20.9655 -1.98958
O 21.5283 2.85976 0.160137
O 8.06473 19.7133 -2.4936
O 12.52 -17.4276 -1.98984
O 22.546 7.198 1.08974
Si 23.8848 8.14854 1.21058
Si 20.9473 6.86749 0.983863
O 23.0364 5.66388 3.22448
Si 24.6742 5.6441 3.02066
Si 21.5214 5.04742 3.31955
O 25.1528 5.76898 4.60452
O 6.98223 24.6018 2.26049
O 17.2505 -19.1944 2.64799
O 21.005 5.1575 4.84611
O 5.75595 20.4752 2.24855
O 14.4144 -15.9523 2.64711
O 21.4057 9.82808 -3.33829
Si 22.7136 10.8224 -3.31043
Si 19.8312 9.42351 -3.14683
O 22.276 7.79964 -1.94783
Si 23.8769 8.16368 -1.95982
Si 20.9347 6.86152 -2.04544
O 24.3628 8.26116 -0.375656
O 4.18202 25.2575 -2.35048
O 19.3426 -17.2127 -2.09735
O 20.6491 6.37673 -0.529321
O 3.42781 21.0167 -2.34209
O 16.1815 -14.332 -2.10055
O 19.8354 12.4184 1.44882
Si 21.2082 13.3279 1.26532
Si 18.3792 11.6685 1.23616
O 21.0882 10.3247 2.68168
Si 22.6579 10.8135 2.63352
Si 19.8237 9.30226 2.47496
O 23.1505 10.9857 4.21281
O 1.3181 25.6452 2.39827
O 21.1704 -14.9739 2.54138
O 19.5188 8.79567 3.98975
O 1.04624 21.3771 2.3996
O 17.7054 -12.468 2.53927
O 18.2533 14.6059 33.5707
Si 19.5861 15.5466 33.8941
Si 17.0648 13.4565 33.6202
O 19.6679 12.8852 -1.79108
Si 21.2262 13.3678 -1.91991
Si 18.4818 11.7797 -1.79549
O 21.5644 13.6645 -0.320727
O -1.56369 25.6609 -2.23219
O 22.6935 -12.5264 -2.20484
O 17.8843 11.7464 -0.297649
O -1.35545 21.3893 -2.23401
O 18.9395 -10.4155 -2.20447
O 16.3762 16.7025 1.1624
Si 17.7052 17.6571 1.28145
Si 15.5195 15.3153 1.28327
O 18.5462 14.3177 3.20801
Si 19.5842 15.549 2.89912
Si 17.108 13.5574 3.2169
O 19.9457 15.8711 4.48643
O -4.42884 25.3176 2.51939
O 23.9651 -9.93055 2.43119
O 16.7245 13.1449 4.72138
O -3.74069 21.0666 2.51814
O 19.9933 -8.26526 2.42853
O 14.3844 18.4171 -3.20387
Si 15.5992 19.526 -3.26403
Si 13.6607 16.9476 -3.09424
O 16.9924 16.1233 -1.81942
Si 17.7951 17.5605 -1.88756
Si 15.7013 15.1242 -1.73883
O 18.159 17.8916 -0.300059
O -7.24093 24.699 -2.10691
O 24.9726 -7.23196 -2.31824
O 15.5619 14.6489 -0.192948
O -6.08433 20.5506 -2.10603
O 20.8647 -6.05403 -2.32433
O 11.9697 20.1982 1.11045
Si 13.1876 21.3004 1.2439
Si 11.2955 18.7111 1.0064
O 14.7131 18.1506 2.71718
Si 15.5444 19.5695 2.67378
Si 13.4428 17.1295 2.52223
O 15.8102 20.0065 4.2555
O -9.98431 23.8126 2.64485
O 25.6144 -4.3998 2.32593
O 12.9142 16.9068 4.04279
O -8.38249 19.847 2.64649
O 21.3983 -3.6991 2.32978
O 9.64589 21.4187 33.9177
Si 10.718 22.6574 -3.40981
Si 9.15148 19.8583 33.8459
O 12.5768 19.7307 -1.89881
Si 13.2421 21.2322 -1.92346
Si 11.3895 18.6068 -2.02101
O 13.4186 21.7174 -0.34632
O -12.596 22.5864 -1.98524
O 25.8807 -1.53729 -2.42419
O 10.8049 18.4778 -0.517687
O -10.5626 18.8242 -1.98471
O 21.579 -1.34201 -2.41619
O 7.44626 22.2463 1.56712
Si 8.23112 23.6895 1.59638
Si 7.27289 20.6236 1.72641
O 10.5886 20.9735 3.27776
Si 10.9101 22.578 3.07206
Si 9.65115 19.6339 3.36253
O 11.1375 23.0077 4.65898
O -15.0303 21.0416 2.76727
O 25.833 1.37341 2.2
O 9.66545 19.083 4.88192
O -12.5709 17.5067 2.76684
O 21.5366 1.06556 2.18573
O 4.90735 22.9657 -3.02439
Si 5.5237 24.4896 -3.01639
Si 4.91539 21.3319 -2.87461
O 8.19727 22.0408 -1.39215
Si 8.32209 23.6761 -1.56766
Si 7.42799 20.5984 -1.30208
O 8.50657 24.1259 0.0196893
O -17.3022 19.2666 -1.86013
O 25.5119 4.22395 -2.56
O 7.51456 20.0659 0.224845
O -14.4605 16.0311 -1.85898
O 21.3228 3.39899 -2.57814
O 1.95612 23.519 1.29173
Si 2.57794 25.0361 1.47079
Si 2.00338 21.8851 1.20283
O 5.30796 22.876 2.9536
Si 5.44 24.514 2.92901
Si 4.56922 21.4203 2.79111
O 5.45683 25.0335 4.50498
O -19.3901 17.2787 2.89402
O 24.7825 7.06096 2.12475
O 4.08668 21.076 4.29899
O -16.2203 14.4104 2.89762
O 20.6849 5.81974 2.17965
O -0.68733 23.6175 -3.34431
Si -0.244049 25.1957 -3.15958
Si -0.456879 21.9986 -3.42953
O 2.70815 23.3563 -1.67303
Si 2.65431 24.9986 -1.69332
Si 2.13468 21.8272 -1.82577
O 2.60617 25.5163 -0.11804
O -21.2101 15.0332 -1.7378
O 23.7716 9.70734 -2.62292
O 1.68044 21.4409 -0.319864
O -17.7361 12.5427 -1.73794
O 19.8497 7.93325 -2.55308
O -2.98621 23.3943 1.8339
Si -2.908 25.0357 1.8573
Si -2.4385 21.8563 1.99179
O 0.410517 23.6119 3.51076
Si -0.00843853 25.1962 3.32359
Si 0.155865 21.9966 3.5955
O 0.0217664 25.6789 4.91162
O -22.7176 12.574 3.01755
O 22.3789 12.3091 1.91345
O 0.418105 21.5132 5.11811
O -18.9521 10.4862 3.01281
O 18.6439 10.1837 1.81148
O -5.59324 22.9475 -2.78932
Si -5.69828 24.5875 -2.76928
Si -4.87796 21.4794 -2.63371
O -2.23812 23.5402 -1.12403
Si -2.83235 25.068 -1.30653
Si -2.3096 21.9066 -1.03825
O -2.8552 25.5512 0.281491
O -23.9743 9.97121 -1.60574
O 20.8095 14.703 -2.85542
O -1.99522 21.4576 0.485366
O -19.9929 8.33286 -1.59907
O 17.5263 12.1772 -3.03268
O -8.48481 22.1688 1.53516
Si -8.5851 23.805 1.71789
Si -7.73451 20.7161 1.44963
O -5.19064 23.0367 3.20456
Si -5.78253 24.5697 3.18188
Si -5.22487 21.4042 3.04683
O -5.9949 25.0431 4.75751
O -24.9614 7.26197 3.15461
O 18.9103 16.8834 2.14695
O -5.51711 20.8866 4.55391
O -20.8468 6.1155 3.16212
O 15.9462 14.428 2.55053
O -10.9212 21.1202 -3.0961
Si -11.2041 22.7347 -2.91145
Si -10.014 19.7597 -3.18118
O -7.74514 22.3477 -1.42456
Si -8.504 23.8053 -1.44601
Si -7.59796 20.7214 -1.58047
O -8.76788 24.2519 0.129616
O -25.5875 4.42978 -1.4917
O 16.9414 18.8537 -2.52322
O -7.83223 20.1752 -0.0733419
O -21.3669 3.75817 -1.50569
O 14.3535 15.9292 -2.07103
O -12.8963 19.93 2.08578
Si -13.5359 21.4436 2.10675
Si -11.7363 18.7807 2.24183
O -9.92273 21.5905 3.756
Si -10.9873 22.8371 3.572
Si -9.45337 20.0243 3.84206
O -11.1665 23.2857 5.16024
O -25.8255 1.5627 3.26828
O 14.6191 20.7281 1.89728
O -9.00919 19.7016 5.36508
O -21.5239 1.40511 3.23637
O 12.3687 17.5921 1.41816
O -15.0573 18.4025 -2.5423
Si -15.8624 19.8349 -2.52068
Si -13.7754 17.3914 -2.38378
O -12.2855 20.3874 -0.874667
Si -13.4842 21.5057 -1.05734
Si -11.6444 18.8835 -0.787429
O -13.7112 21.9318 0.531052
O -25.7653 -1.34249 -1.32115
O 12.2055 22.2558 -2.74985
O -11.1652 18.614 0.735213
O -21.4751 -1.00472 -1.27006
O 10.3538 18.9014 -3.21406
O -17.3281 16.4489 1.77955
Si -18.1268 17.8799 1.96593
Si -16.0205 15.4675 1.69347
O -14.7316 18.658 3.45346
Si -15.9295 19.7828 3.42933
Si -14.0567 17.1718 3.29189
O -16.3256 20.1185 5.00495
O -25.4035 -4.20418 3.46034
O 9.68008 23.5026 2.41181
O -14.0986 16.5771 4.79829
O -21.2259 -3.3576 3.5027
O 8.15636 19.9994 2.91242
O -19.0658 14.4452 -2.85431
Si -20.0224 15.7756 -2.66397
Si -17.6558 13.6174 -2.94003
O -16.7373 16.9311 -1.17577
Si -18.0542 17.9141 -1.19846
Si -15.8994 15.53 -1.33551
O -18.4853 18.2033 0.377331
O -24.7148 -7.0241 -1.29083
O 6.99339 24.4625 -2.21655
O -15.8756 14.9352 0.171269
O -20.6057 -5.77474 -1.40094
O 5.89087 20.7905 -1.72064
O -20.3121 12.5168 2.33638
Si -21.5524 13.5944 2.3577
Si -18.7638 11.999 2.49412
O -18.3644 15.3142 4.0109
Si -19.8689 15.9644 3.82267
Si -17.2574 14.1114 4.09839
O -20.2265 16.2878 5.41157
O -23.7 -9.69058 3.40751
O 4.11845 25.1435 2.11839
O -16.7168 14.0139 5.62089
O -19.7914 -7.95121 3.12209
O 3.46592 21.3793 1.62555
O -21.5806 10.1917 -2.29106
Si -22.9358 11.1206 -2.26649
Si -19.9839 9.85542 -2.12391
O -19.9652 13.2038 -0.622746
Si -21.5357 13.6736 -0.807147
Si -18.7293 12.1345 -0.532501
O -21.9254 13.9566 0.782026
O -22.3694 -12.3189 -1.05746
O 1.27454 25.4753 -2.51129
O -18.1774 12.1072 0.988543
O -18.6395 -10.2895 -0.778539
O 1.05123 21.6595 -2.99881
O -22.7543 7.42929 2.03327
Si -24.1009 8.36255 2.22184
Si -21.147 7.13393 1.94572
O -21.3993 10.5693 3.70591
Si -22.9714 11.047 3.67925
Si -20.1399 9.53286 3.53529
O -23.4759 11.1724 5.25483
O -20.7414 -14.7397 3.60633
O -1.52169 25.4956 2.67283
O -19.9161 8.9745 5.03906
O -17.5387 -12.4275 3.976
O -1.35596 21.6761 3.16394
O -23.4084 4.87024 -2.61444
Si -24.8581 5.63128 -2.41202
Si -21.777 4.76041 -2.70123
O -22.4331 8.12954 -0.922623
Si -24.0496 8.42441 -0.943743
Si -21.0612 7.24443 -1.08089
O -24.5651 8.4921 0.632363
O -18.9848 -16.927 -1.48142
O -4.37 25.1984 -1.95612
O -20.7817 6.71672 0.424863
O -16.0703 -14.4736 -1.97773
O -3.7771 21.4184 -1.46639
O -23.6541 2.5993 2.58137
Si -25.2473 2.99862 2.60479
Si -22.0392 2.84268 2.72944
O -23.1684 5.96292 4.28195
Si -24.8035 5.86892 4.07996
Si -21.6388 5.38527 4.36497
O -25.2685 5.98738 5.6706
O -16.9793 -18.9565 3.15483
O -7.24335 24.5676 2.36678
O -21.1085 5.52606 5.88797
O -14.4127 -16.1319 2.65168
O -6.19781 20.8896 1.87776
O -23.7308 -0.0778329 -2.04106
Si -25.3592 0.1432 -2.00525
Si -22.1547 0.334883 -1.85281
O -23.6553 3.35909 -0.390315
Si -25.2688 3.06631 -0.562122
Si -22.0718 2.95911 -0.294838
O -25.7428 3.14878 1.02775
O -14.6807 -20.8077 -1.19408
O -9.95539 23.6413 -2.26169
O -21.5699 3.20449 1.22343
O -12.4506 -17.6889 -0.698358
O -8.50636 20.1018 -2.7507
O -23.5274 -3.07625 2.36275
Si -25.1491 -2.83437 2.51884
Si -21.965 -2.60772 2.27794
O -23.7447 0.382455 3.96776
Si -25.3608 0.0896207 3.93925
Si -22.1555 0.0296781 3.77941
O -25.8631 -0.0222289 5.51532
O -12.2537 -22.3359 3.45
O -12.4827 22.4555 2.92263
O -21.6827 -0.363475 5.27414
O -10.4159 -18.9879 3.94214
O -10.6802 19.0837 3.41248
O -22.9709 -5.56367 -2.39001
Si -24.6048 -5.58912 -2.15765
Si -21.4597 -4.93388 -2.46891
O -23.5572 -2.29272 -0.640221
Si -25.1347 -2.75446 -0.65083
Si -21.9291 -2.45973 -0.745856
O -25.6176 -2.93099 0.927873
O -9.73299 -23.5478 -1.72433
O -14.9281 20.9582 -1.70518
O -21.4528 -2.82133 0.757816
O -8.24131 -20.0367 -2.22243
O -12.7611 17.813 -1.213
O -22.2313 -7.74735 2.93512
Si -23.8104 -8.13742 2.76933
Si -20.8884 -6.83828 2.75774
O -23.1592 -4.69922 4.58626
Si -24.6305 -5.41441 4.33172
Si -21.5282 -4.49263 4.61505
O -25.0918 -5.55691 5.92555
O -7.03043 -24.4945 2.91456
O -17.2458 19.1479 2.6144
O -21.0652 -4.2346 6.15028
O -5.95459 -20.8254 2.42043
O -14.7126 16.2939 2.11851
O -21.0528 -10.3026 -1.85406
Si -22.6165 -10.831 -1.79855
Si -19.6927 -9.40226 -1.62593
O -22.3913 -7.35959 -0.619245
Si -23.8139 -8.15518 -0.429149
Si -20.8586 -6.90254 -0.28352
O -24.2457 -8.2008 1.17077
O -4.15882 -25.145 -1.40184
O -19.2908 17.1343 -2.01296
O -20.7156 -6.36036 1.22946
O -3.53319 -21.3667 -0.912074
O -16.4495 14.5842 -2.51048
O -19.9784 -12.3159 2.88479
Si -21.2218 -13.3707 2.77033
Si -18.428 -11.8218 2.7773
O -21.1798 -10.1082 3.78273
Si -22.6532 -10.8232 4.07659
Si -19.7128 -9.35162 3.89474
O -23.0627 -11.0373 5.66901
O -1.31184 -25.4571 3.23662
O -21.0464 14.9656 3.17319
O -19.3109 -9.10389 5.43238
O -1.11545 -21.6332 3.7237
O -17.9546 12.7316 3.67058
O -18.6798 -14.2817 -2.40515
Si -19.6817 -15.5639 -2.16133
Si -17.2442 -13.5072 -2.47465
O -19.8147 -12.5509 -0.618212
Si -21.2285 -13.3752 -0.424191
Si -18.3927 -11.8018 -0.272445
O -21.5286 -13.6926 1.17408
O 1.48205 -25.4566 -1.93972
O -22.5898 12.5421 -1.45218
O -17.911 -11.9781 1.25815
O 1.29566 -21.6316 -2.42626
O -19.2704 10.6832 -0.948781
O -17.0325 -16.2431 2.35915
Si -17.8411 -17.6713 2.5138
Si -15.7147 -15.2789 2.26689
O -18.0954 -14.971 4.57261
Si -19.5648 -15.6897 4.32794
Si -16.9539 -13.7895 4.60237
O -19.9522 -15.9924 5.91796
O 4.32899 -25.1444 2.69883
O -23.8697 9.89182 2.8661
O -16.4404 -13.6116 6.13323
O 3.71864 -21.3597 2.21395
O -20.3498 8.46307 2.35781
O -14.7699 -18.2451 -2.01636
Si -15.6024 -19.6622 -1.99539
Si -13.4762 -17.2492 -1.85343
O -16.4306 -16.7724 -0.60165
Si -17.7683 -17.7241 -0.651923
Si -15.5714 -15.3864 -0.756345
O -18.2087 -17.9918 0.926041
O 7.1967 -24.5021 -1.61565
O -24.8094 7.17238 -1.75562
O -15.5711 -14.7632 0.73827
O 6.13492 -20.8181 -1.13136
O -21.131 6.16143 -2.26341
O -12.6342 -19.8109 2.60682
Si -13.2954 -21.3146 2.6286
Si -11.4544 -18.6817 2.75664
O -14.4486 -18.513 3.96183
Si -15.665 -19.6183 3.9522
Si -13.7504 -17.0382 3.79609
O -16.0578 -19.9543 5.52806
O 9.90528 -23.5683 3.02189
O -25.4089 4.45194 3.42079
O -13.763 -16.4486 5.30199
O 8.44365 -20.0243 3.50682
O -21.6442 3.84502 3.91861
O -10.6686 -21.0209 -2.57273
Si -10.9717 -22.6303 -2.37983
Si -9.74135 -19.6748 -2.66025
O -12.0293 -20.2754 -0.367044
Si -13.2472 -21.3746 -0.537585
Si -11.3606 -18.7847 -0.27024
O -13.478 -21.7978 1.05152
O 12.4311 -22.379 -2.15274
O -25.6935 1.57716 -1.20505
O -10.8748 -18.5329 1.25252
O 10.6239 -18.9998 -2.63784
O -21.9043 1.41437 -0.690854
O -8.2522 -22.0878 2.07929
Si -8.36625 -23.723 2.26238
Si -7.48998 -20.6414 1.99141
O -9.68663 -21.4969 4.30171
Si -10.7651 -22.7308 4.11002
Si -9.19996 -19.9359 4.38599
O -10.9521 -23.1745 5.69972
O 14.8754 -20.882 2.48395
O -25.6357 -1.35875 3.14589
O -8.75304 -19.6127 5.90816
O 12.7056 -17.7259 1.99743
O -21.8734 -1.04802 2.62957
O -5.3605 -22.8862 -2.23476
Si -5.48128 -24.525 -2.2185
Si -4.6319 -21.4244 -2.08156
O -7.51104 -22.2761 -0.877115
Si -8.28568 -23.7252 -0.902467
Si -7.34927 -20.652 -1.03756
O -8.5539 -24.1687 0.673804
O 17.1946 -19.0768 -1.82816
O -25.2589 -4.21429 -1.46023
O -7.58665 -20.1018 0.467698
O 14.6597 -16.2113 -1.33747
O -21.449 -3.42654 -1.93197
O -2.75867 -23.3474 2.40001
Si -2.69345 -24.9894 2.41691
Si -2.19842 -21.8131 2.55172
O -4.96536 -22.9775 3.74911
Si -5.56967 -24.5058 3.73098
Si -4.98677 -21.3448 3.59175
O -5.78217 -24.9776 5.30719
O 19.2447 -17.0688 2.80824
O -24.6116 -6.91891 3.59406
O -5.27248 -20.8257 5.09939
O 16.4047 -14.5056 3.30155
O -20.7837 -5.74993 3.93955
O -0.456941 -23.5815 -2.77622
Si -0.0311766 -25.1645 -2.59388
Si -0.212417 -21.9648 -2.86278
O -2.01465 -23.4999 -0.568349
Si -2.62205 -25.023 -0.747791
Si -2.07145 -21.8661 -0.478173
O -2.6448 -25.5046 0.840773
O 21.0103 -14.9082 -2.3687
O -23.5951 -9.69573 -1.05094
O -1.75262 -21.4203 1.04498
O 17.9231 -12.6538 -2.86256
O -19.8775 -8.11807 -0.66504
O 2.19464 -23.4936 1.86478
Si 2.79289 -25.0201 2.0447
Si 2.25712 -21.8596 1.7775
O 0.633178 -23.5826 4.07088
Si 0.201743 -25.1644 3.89026
Si 0.393048 -21.9653 4.15891
O 0.232701 -25.6457 5.47873
O 22.5654 -12.4922 2.2654
O -22.3927 -12.3421 3.40409
O 0.660345 -21.4855 5.68192
O 19.2471 -10.6077 1.76816
O -18.6253 -10.2763 3.16625
O 5.14054 -22.9764 -2.45156
Si 5.73799 -24.5074 -2.43445
Si 5.1665 -21.3431 -2.30028
O 2.93284 -23.3465 -1.09987
Si 2.86299 -24.9884 -1.11962
Si 2.37906 -21.8101 -1.25393
O 2.81467 -25.503 0.456613
O 23.8627 -9.85347 -2.04229
O -20.8671 -14.7779 -1.27131
O 1.93835 -21.4134 0.253838
O 20.3429 -8.40021 -1.53909
O -17.3402 -12.3698 -1.34637
O 7.69311 -22.278 2.186
Si 8.45585 -23.7337 2.20317
Si 7.53892 -20.6518 2.33727
O 5.53823 -22.8867 3.5347
Si 5.65043 -24.5264 3.5176
Si 4.81853 -21.4204 3.38296
O 5.65946 -25.043 5.0938
O 24.819 -7.13703 2.58909
O -19.0856 -17.0348 3.44585
O 4.33895 -21.0744 4.89127
O 21.145 -6.09734 3.09415
O -15.8805 -14.2127 3.4688
O 9.87411 -21.5105 -2.98572
Si 10.9372 -22.7588 -2.80643
Si 9.40237 -19.9449 -3.07393
O 8.4229 -22.0978 -0.781692
Si 8.53238 -23.7338 -0.961215
Si 7.66972 -20.6464 -0.694353
O 8.71843 -24.1791 0.627029
O 25.4414 -4.42431 -2.58615
O -17.0303 -19.0829 -1.31778
O 7.76732 -20.1062 0.828986
O 21.6794 -3.78909 -3.08862
O -14.1336 -15.9015 -1.2658
O 12.2367 -20.303 1.65203
Si 13.4323 -21.4252 1.83119
Si 11.5946 -18.7994 1.56301
O 10.8591 -21.0444 3.85679
Si 11.1486 -22.6581 3.67649
Si 9.95032 -19.6849 3.9439
O 11.3824 -23.0808 5.26461
O 25.7436 -1.54973 2.04216
O -14.7856 -20.8898 3.28617
O 9.98839 -19.1373 5.46731
O 21.9497 -1.35708 1.53317
O -12.2749 -17.3905 3.25815
O 14.6821 -18.5795 -2.66676
Si 15.8783 -19.7063 -2.64714
Si 14.0072 -17.0925 -2.51104
O 12.8415 -19.8529 -1.3167
Si 13.4812 -21.3667 -1.33334
Si 11.6829 -18.7015 -1.46791
O 13.6568 -21.8526 0.242938
O 25.7148 1.38126 -2.2678
O -12.366 -22.4667 -1.45978
O 11.1155 -18.5319 0.0398296
O 21.9411 1.08785 -1.75369
O -10.2751 -18.7357 -1.46218
O 16.6917 -16.8564 1.97227
Si 18.0064 -17.8426 1.99053
Si 15.8555 -15.4537 2.12723
O 15.0041 -18.3267 3.31951
Si 15.8078 -19.7601 3.30335
Si 13.7242 -17.3118 3.1678
O 16.0361 -20.2244 4.87945
O 25.3273 4.25587 2.34649
O -9.76704 -23.7166 3.18768
O 13.1406 -17.208 4.67522
O 21.5369 3.51624 2.84322
O -8.12728 -19.7682 3.19076
O 18.3272 -15.2387 -3.20504
Si 19.828 -15.8987 -3.02207
Si 17.2248 -14.0317 -3.29548
O 17.2756 -16.3803 -0.990605
Si 18.0751 -17.8112 -1.17426
Si 15.9712 -15.3946 -0.903306
O 18.4343 -18.1337 0.414287
O 24.672 6.93762 -2.7784
O -7.02637 -24.6269 -1.56019
O 15.8296 -14.862 0.619219
O 20.9795 5.78662 -3.23911
O -5.83221 -20.489 -1.55342
O 19.9372 -13.1308 1.43302
Si 21.5039 -13.6138 1.6153
Si 18.7058 -12.0562 1.34105
O 19.023 -14.3807 3.64858
Si 19.9779 -15.7128 3.46322
Si 17.6163 -13.5473 3.73652
O 20.3705 -15.9948 5.05166
O 23.6033 9.67139 1.85212
O -4.2186 -25.2623 3.07275
O 17.4157 -13.0354 5.2594
O 20.0884 8.17212 1.35811
O -3.49873 -21.0155 3.0697
O 21.3884 -10.5111 -2.88443
Si 22.9574 -10.9993 -2.8614
Si 20.1342 -9.46714 -2.72032
O 20.2862 -12.4561 -1.53398
Si 21.5208 -13.5405 -1.54995
Si 18.7409 -11.9277 -1.68739
O 21.8909 -13.9018 0.0264951
O 22.3159 12.2552 -2.53859
O -1.3558 -25.6229 -1.67146
O 18.1555 -12.0272 -0.180738
O 19.0718 10.3208 -2.06806
O -1.1105 -21.352 -1.66923
O 22.4362 -8.07705 1.75855
Si 24.051 -8.38257 1.77446
Si 21.0696 -7.1833 1.91406
O 21.5675 -10.138 3.10202
Si 22.9173 -11.075 3.08454
Si 19.9721 -9.79067 2.94444
O 23.3266 -11.3946 4.6605
O 20.7968 14.7361 2.07664
O 1.52651 -25.6213 2.96702
O 19.4002 -9.9611 4.45002
O 17.3005 12.3002 2.24127
O 1.29318 -21.3493 2.96826
O 23.1895 -5.92073 -3.43569
Si 24.8263 -5.83806 -3.24336
Si 21.6648 -5.33192 34.0004
O 22.7581 -7.38981 -1.20294
Si 24.1014 -8.32804 -1.3914
Si 21.1529 -7.08247 -1.11397
O 24.5646 -8.45748 0.198216
O 19.0435 16.9034 -2.80653
O 4.38667 -25.2628 -1.777
O 20.7912 -6.66049 0.406373
O 15.9121 14.039 -2.92242
O 3.67885 -21.0137 -1.77607
O 23.6892 -3.31028 1.21698
Si 25.3052 -3.03423 1.39758
Si 22.1081 -2.8991 1.12132
O 23.4325 -4.8231 3.43877
Si 24.877 -5.59617 3.24584
Si 21.8024 -4.70013 3.52937
O 25.3543 -5.67935 4.83428
O 16.9596 19.0063 1.95715
O 7.19515 -24.6324 2.86055
O 21.3953 -4.33278 5.05202
O 14.0826 15.8309 1.80735
O 6.02346 -20.4871 2.8597
O 23.8112 -0.330394 -3.10863
Si 25.4307 -0.0542975 -3.0827
Si 22.2235 0.038485 -2.93281
O 23.6984 -2.5568 -1.75242
Si 25.2883 -2.97065 -1.76873
Si 22.0811 -2.78291 -1.9048
O 25.7805 -3.12368 -0.191264
O 14.7319 20.7983 -2.57897
O 9.93411 -23.7373 -1.88344
O 21.6045 -3.13459 -0.398191
O 12.2112 17.3039 -2.49091
O 8.32435 -19.7729 -1.88418
O 23.7677 1.97981 10.5021
Si 25.2745 2.62688 10.6738
Si 22.1348 2.01132 10.405
O 23.8711 0.445711 12.7165
Si 25.4553 0.0306775 12.5165
Si 22.2571 0.185669 12.8071
O 25.9392 0.0568756 14.105
O 12.2775 22.3719 11.5025
O 12.5228 -22.4719 12.1357
O 21.7737 0.44236 14.329
O 10.1529 18.6314 11.4509
O 10.4727 -18.6834 12.1354
O 23.1819 4.89665 6.15467
Si 24.6902 5.54688 6.18107
Si 21.554 4.88129 6.34085
O 23.5968 2.71302 7.52629
Si 25.2391 2.6839 7.50617
Si 22.0781 2.11172 7.3802
O 25.7547 2.65194 9.08369
O 9.69295 23.6401 6.90609
O 15.0002 -20.9997 7.39163
O 21.7025 1.65628 8.88704
O 8.01051 19.6761 6.93349
O 12.5585 -17.4869 7.38965
O 22.3944 7.46109 10.7755
Si 23.8272 8.26667 10.7803
Si 20.7703 7.25558 10.8754
O 23.0661 5.33822 12.1582
Si 24.7024 5.49113 12.1253
Si 21.623 4.58118 11.973
O 25.219 5.52582 13.7042
O 6.98888 24.6501 11.6594
O 17.2777 -19.2274 12.0296
O 21.2652 4.10197 13.4802
O 5.76121 20.5532 11.6618
O 14.4604 -16.0086 12.0276
O 21.4518 9.72628 5.55407
Si 22.7324 10.7455 5.80687
Si 19.9108 9.15067 5.52559
O 22.1892 8.21167 7.76335
Si 23.8236 8.34354 7.60993
Si 20.7731 7.40264 7.85077
O 24.2568 8.54585 9.201
O 4.18295 25.3059 7.01938
O 19.3117 -17.1829 7.28488
O 20.2265 7.49772 9.37079
O 3.43851 21.0957 7.01724
O 16.1302 -14.2794 7.28505
O 20.0976 12.156 10.7818
Si 21.319 13.2317 10.5768
Si 18.7182 11.3527 10.4322
O 21.0858 10.5098 12.5231
Si 22.6717 10.9049 12.2942
Si 19.7548 9.55663 12.6034
O 23.1241 11.1234 13.8754
O 1.31183 25.6039 11.775
O 21.1355 -14.9491 11.9215
O 19.2313 9.50382 14.1244
O 1.03873 21.3067 11.7684
O 17.6465 -12.4237 11.9204
O 18.3097 14.5549 6.37069
Si 19.593 15.5725 6.07887
Si 17.0561 13.4813 6.25924
O 19.8831 12.4611 7.18105
Si 21.3236 13.2098 7.37534
Si 18.7662 11.2908 7.38781
O 21.727 13.3663 8.97574
O -1.566 25.6209 7.1502
O 22.7313 -12.5468 7.17532
O 18.7109 10.7935 8.91867
O -1.35489 21.3196 7.1539
O 19.0031 -10.4545 7.1715
O 16.436 16.6227 10.7821
Si 17.6326 17.7397 10.589
Si 15.2174 15.5738 10.4381
O 18.1525 14.6982 12.0047
Si 19.5564 15.5674 11.9536
Si 17.0216 13.5208 11.7834
O 19.9673 15.866 13.5391
O -4.43826 25.3609 11.9031
O 24.0074 -9.95136 11.8144
O 16.648 13.1142 13.3194
O -3.75673 21.1386 11.9027
O 20.0653 -8.29803 11.8138
O 14.222 18.6023 5.60323
Si 15.4976 19.6265 5.84518
Si 13.3738 17.1957 5.57385
O 16.6565 16.4235 7.28945
Si 17.6311 17.7316 7.39549
Si 15.2534 15.598 7.38835
O 17.8573 18.1158 8.99127
O -7.25398 24.7407 7.27229
O 24.9295 -7.21685 7.06695
O 14.711 15.633 8.90644
O -6.10375 20.6213 7.27261
O 20.7918 -6.02348 7.07112
O 12.1999 19.9876 10.7765
Si 13.2946 21.2108 10.8309
Si 11.6668 18.4467 10.9338
O 14.9486 18.0539 12.5758
Si 15.6411 19.5267 12.3331
Si 13.7198 16.9808 12.6429
O 15.9576 19.8892 13.9215
O -9.96935 23.7735 12.0254
O 25.5715 -4.39724 11.6984
O 13.5869 16.4184 14.1471
O -8.35771 19.7801 12.0243
O 21.3233 -3.69375 11.6927
O 9.88305 21.2481 6.22225
Si 10.8271 22.5935 6.23445
Si 9.52505 19.6561 6.38791
O 12.9065 19.6023 7.82157
Si 13.3809 21.1734 7.66596
Si 11.8335 18.371 7.91025
O 13.6666 21.5692 9.25345
O -12.5767 22.5486 7.39676
O 25.9231 -1.53386 6.94578
O 11.8029 17.8374 9.43944
O -10.529 18.7601 7.39847
O 21.6557 -1.34285 6.93945
O 7.13729 22.4374 10.5631
Si 8.08471 23.7767 10.7343
Si 6.81101 20.8362 10.47
O 10.2584 21.0558 12.2106
Si 10.7594 22.6211 12.1855
Si 9.21625 19.7993 12.0458
O 10.9064 23.1095 13.7655
O -15.0551 21.0786 12.1503
O 25.8937 1.36796 11.599
O 8.70187 19.5338 13.56
O -12.6114 17.5696 12.1529
O 21.6298 1.07032 11.6135
O 4.58482 23.1202 5.90255
Si 5.36849 24.5594 6.09425
Si 4.44989 21.4904 5.82155
O 7.83226 22.1152 7.59406
Si 8.14833 23.7272 7.56889
Si 6.92884 20.755 7.44275
O 8.21979 24.2397 9.14547
O -17.3314 19.2999 7.51882
O 25.4769 4.21519 6.84686
O 6.39549 20.4815 8.94669
O -14.5084 16.0885 7.5204
O 21.2504 3.3967 6.8781
O 2.29032 23.4122 11.0832
Si 2.73317 24.9944 11.1121
Si 2.48315 21.7917 11.2454
O 5.6484 22.8692 12.7758
Si 5.59455 24.506 12.5825
Si 5.03524 21.3538 12.8598
O 5.7322 24.9657 14.1716
O -19.3574 17.251 12.2734
O 24.7616 7.03199 11.4457
O 5.18692 20.8159 14.3781
O -16.1668 14.3597 12.2722
O 20.6576 5.73429 11.3953
O -0.346683 23.5492 6.46587
Si -0.0861821 25.1717 6.4873
Si 0.0260063 21.9596 6.62513
O 3.05921 23.3879 8.13096
Si 2.81625 25.009 7.94811
Si 2.62733 21.8109 8.21658
O 2.90115 25.4856 9.53632
O -21.1733 15.0036 7.64599
O 23.7598 9.73736 6.67193
O 2.83426 21.3043 9.74066
O -17.6729 12.4958 7.64944
O 19.8806 7.9692 6.62993
O -3.34124 23.4279 10.794
Si -3.07516 25.0457 10.9759
Si -2.93269 21.8449 10.7072
O 0.0633707 23.5461 12.461
Si -0.172514 25.1723 12.4392
Si -0.332437 21.962 12.3032
O -0.271767 25.6795 14.0157
O -22.7568 12.5995 12.4034
O 22.4533 12.3294 11.4313
O -0.726844 21.5194 13.8109
O -19.0162 10.5334 12.41
O 18.7314 10.1884 11.5406
O -5.94579 22.941 6.16167
Si -5.8639 24.5782 6.34579
Si -5.3618 21.4137 6.07695
O -2.57728 23.4386 7.83414
Si -2.99483 25.0279 7.81182
Si -2.79402 21.8202 7.67779
O -3.15391 25.5218 9.38745
O -24.0162 9.98469 7.76622
O 20.8657 14.701 6.74563
O -3.1461 21.3395 9.18409
O -20.0648 8.35625 7.76275
O 17.4492 12.1353 7.03256
O -8.13654 22.2163 11.3406
Si -8.42374 23.8342 11.3638
Si -7.26186 20.8376 11.4983
O -4.87055 23.1779 13.0146
Si -5.63118 24.6298 12.83
Si -4.761 21.5465 13.0995
O -5.70602 25.1064 14.4184
O -24.9187 7.25693 12.5241
O 18.9812 16.964 11.2183
O -4.39729 21.1327 14.6218
O -20.7721 6.09828 12.5157
O 15.7956 14.1538 10.9408
O -10.5807 21.2052 6.71474
Si -11.0469 22.7809 6.73589
Si -9.55751 19.9326 6.8718
O -7.44001 22.5249 8.38227
Si -8.35878 23.8827 8.19989
Si -7.1482 20.9161 8.46846
O -8.48625 24.349 9.78805
O -25.5301 4.41198 7.9085
O 16.8564 18.9594 6.56238
O -6.74192 20.5472 9.99172
O -21.2759 3.74217 7.92405
O 14.2518 15.9974 6.19201
O -13.2291 19.8079 11.0382
Si -13.6891 21.381 11.223
Si -12.1749 18.5581 10.953
O -10.2078 21.3815 12.7115
Si -11.1244 22.7453 12.6879
Si -9.88006 19.7821 12.552
O -11.4354 23.1598 14.2637
O -25.8628 1.56389 12.6769
O 14.6583 20.7019 11.6571
O -10.0505 19.2118 14.0588
O -21.5962 1.4221 12.6961
O 12.3601 17.6653 12.1513
O -15.3725 18.2439 6.4066
Si -16.0068 19.7551 6.59325
Si -14.1848 17.1201 6.32116
O -12.5473 20.1455 8.08116
Si -13.6109 21.3982 8.05884
Si -12.0432 18.5925 7.92329
O -13.9662 21.7765 9.63455
O -25.7953 -1.36386 7.99875
O 12.256 22.2371 7.02833
O -12.1513 18.0079 9.43037
O -21.5245 -1.07836 7.94492
O 10.3745 18.9151 7.52779
O -17.0281 16.6469 11.5919
Si -17.991 17.9783 11.6128
Si -15.6391 15.7887 11.7489
O -14.4992 18.9301 13.2641
Si -15.8166 19.9054 13.0784
Si -13.6924 17.5082 13.3508
O -16.0915 20.3016 14.6671
O -25.4075 -4.17043 12.7551
O 9.60819 23.5372 11.3875
O -13.1875 17.2915 14.8734
O -21.188 -3.32522 12.6843
O 8.11495 20.0049 10.8951
O -18.7912 14.6701 6.96545
Si -19.8986 15.884 6.98708
Si -17.3136 13.9762 7.12612
O -16.5352 17.2307 8.63204
Si -17.9557 18.0488 8.44839
Si -15.5732 15.9091 8.72081
O -18.2715 18.4144 10.0369
O -24.6375 -7.01984 8.22882
O 6.90824 24.4972 6.75045
O -15.0443 15.756 10.2429
O -20.5206 -5.78479 8.33208
O 5.84398 20.8292 6.26159
O -20.5648 12.256 11.2846
Si -21.6641 13.471 11.4728
Si -19.0682 11.5989 11.1981
O -18.531 14.9974 12.9626
Si -19.952 15.8224 12.9352
Si -17.5403 13.7011 12.7953
O -20.4145 16.0596 14.5109
O -23.6469 -9.70528 13.0066
O 4.18568 25.1337 11.9308
O -17.4494 13.1084 14.3003
O -19.8832 -7.97538 13.1845
O 3.49139 21.3831 12.4261
O -21.7953 9.90572 6.64937
Si -23.0299 10.9826 6.843
Si -20.2336 9.42149 6.5619
O -20.0948 12.8575 8.32773
Si -21.6007 13.5156 8.30768
Si -18.9618 11.6819 8.17018
O -22.0862 13.7022 9.8834
O -22.2804 -12.256 8.01262
O 1.34418 25.4746 7.30031
O -18.807 11.1088 9.67748
O -18.8405 -10.5232 7.61041
O 1.08706 21.6608 7.79238
O -22.5629 7.75713 11.8438
Si -24.0191 8.51763 11.8638
Si -20.9364 7.61357 11.9982
O -21.3109 10.924 13.5255
Si -22.9244 11.2101 13.3318
Si -19.9567 10.0082 13.6126
O -23.3484 11.4394 14.9212
O -20.802 -14.6169 12.6912
O -1.59871 25.4934 11.626
O -19.4089 10.0319 15.1354
O -17.6265 -12.3376 12.2381
O -1.39608 21.6735 11.1357
O -23.2579 5.17964 7.221
Si -24.7904 5.77298 7.24572
Si -21.6273 5.22162 7.39246
O -22.3839 8.49352 8.87912
Si -24.0206 8.58698 8.69823
Si -20.9358 7.73701 8.97231
O -24.4644 8.77952 10.2869
O -18.9509 -16.9606 8.28027
O -4.44642 25.1875 6.9958
O -20.3918 7.84973 10.492
O -16.0625 -14.4004 8.76257
O -3.81586 21.4161 6.50704
O -23.7605 2.23225 11.5582
Si -25.2847 2.83287 11.7397
Si -22.1305 2.32564 11.4697
O -23.1744 5.61711 13.2178
Si -24.8144 5.713 13.1879
Si -21.7107 4.90062 13.0388
O -25.3359 5.71839 14.7631
O -16.9346 -18.9863 12.9352
O -7.17359 24.5881 12.1804
O -21.3618 4.40478 14.5397
O -14.39 -16.1217 13.4026
O -6.16536 20.9004 12.6695
O -23.7781 -0.400852 6.89169
Si -25.3684 -0.0107459 7.09914
Si -22.1631 -0.141228 6.80033
O -23.5985 2.97446 8.56952
Si -25.2402 2.89035 8.57168
Si -22.0555 2.43083 8.4433
O -25.7584 2.84315 10.1477
O -14.7437 -20.7581 7.77905
O -9.88755 23.6696 7.55132
O -21.6728 1.99218 9.95408
O -12.4892 -17.6739 7.27485
O -8.47238 20.1171 8.04072
O -23.5201 -2.65047 12.0716
Si -25.1618 -2.64438 12.0877
Si -22.0027 -2.03747 12.1729
O -23.813 0.687879 13.8076
Si -25.3865 0.236226 13.5893
Si -22.1875 0.49278 13.877
O -25.8717 0.228502 15.1799
O -12.3304 -22.2829 12.4151
O -12.5486 22.4207 11.8724
O -21.6981 0.724617 15.4041
O -10.4542 -18.9391 11.9159
O -10.715 19.0683 11.3809
O -22.9332 -5.37968 7.45824
Si -24.5727 -5.50128 7.50467
Si -21.4731 -4.66386 7.66452
O -23.6508 -1.99514 9.04047
Si -25.1676 -2.62356 8.91785
Si -22.0188 -2.03377 9.14484
O -25.6588 -2.62739 10.5041
O -9.66953 -23.5721 8.09029
O -14.9903 20.9158 7.24398
O -21.616 -1.62498 10.658
O -8.21639 -20.0386 8.58553
O -12.7915 17.79 6.75099
O -22.1252 -8.19542 11.9343
Si -23.752 -8.31314 12.0663
Si -20.7226 -7.38215 11.9413
O -23.1316 -4.8179 13.4801
Si -24.629 -5.49357 13.4477
Si -21.5072 -4.77907 13.2827
O -25.0968 -5.69653 15.0247
O -6.96304 -24.5098 12.7279
O -17.1893 19.1996 12.4286
O -20.9382 -4.99694 14.773
O -5.92129 -20.8308 13.2166
O -14.6808 16.3196 12.9221
O -21.3493 -9.84064 6.94399
Si -22.6374 -10.8061 7.25634
Si -19.7781 -9.41954 6.93636
O -22.1851 -7.69017 8.70067
Si -23.7253 -8.27367 8.88146
Si -20.5963 -7.28994 8.91085
O -24.149 -8.52384 10.4669
O -4.23509 -25.1307 7.55096
O -19.2398 17.1889 7.80248
O -20.131 -7.48064 10.444
O -3.57188 -21.3626 7.05859
O -16.424 14.6164 8.29879
O -20.2422 -11.9439 11.9886
Si -21.3446 -13.1669 12.0514
Si -18.7625 -11.2551 11.9029
O -21.1383 -10.1732 14.115
Si -22.6441 -10.7995 13.7877
Si -19.7211 -9.32149 14.0649
O -23.0859 -11.0289 15.3795
O -1.38879 -25.4513 12.1885
O -21.0901 14.9058 12.1193
O -19.2383 -9.08245 15.6026
O -1.15174 -21.6261 11.6999
O -17.9852 12.7052 11.6177
O -18.4691 -14.4279 7.45839
Si -19.595 -15.6265 7.49993
Si -17.0042 -13.7134 7.6541
O -19.7713 -12.6429 8.99779
Si -21.2794 -13.2778 8.8818
Si -18.6283 -11.4799 8.88126
O -21.7731 -13.406 10.4636
O 1.553 -25.4521 7.87364
O -22.6278 12.4724 7.49571
O -18.5245 -10.8208 10.3574
O 1.32552 -21.627 8.35898
O -19.2806 10.6377 6.99326
O -16.7381 -16.4425 12.0852
Si -17.7189 -17.7599 12.1057
Si -15.3313 -15.6094 12.2049
O -18.213 -14.7569 13.3671
Si -19.6429 -15.5697 13.4348
Si -17.181 -13.4845 13.2628
O -20.0713 -15.8449 15.013
O 4.39979 -25.132 12.5109
O -23.8412 9.96931 12.6784
O -16.9919 -12.9867 14.7849
O 3.75065 -21.3541 12.9947
O -20.318 8.50726 13.1788
O -15.0747 -18.0916 6.90938
Si -15.7402 -19.5867 7.11524
Si -13.8665 -16.9903 6.82101