3120
 Atoms. Timestep: 45545
O 21.9147 3.19917 1.9962
Si 23.5332 2.94622 2.19553
Si 20.3437 2.75361 1.89112
O 22.0927 -0.251569 3.61923
Si 23.7159 0.00792698 3.6208
Si 20.5093 0.143963 3.45205
O 24.2333 0.103491 5.19824
O 24.0016 1.46167 2.82925
O 24.1447 -1.48315 2.94975
O 20.0845 0.544383 4.96146
O 20.2316 1.20192 2.2796
O 19.8484 -1.23199 2.94339
O 21.3593 5.79203 -2.65109
Si 22.9928 5.74815 -2.43
Si 19.8645 5.1374 -2.75054
O 21.9524 2.41145 -0.940632
Si 23.5291 2.86956 -0.977039
Si 20.3365 2.60855 -1.12995
O 24.0137 3.03866 0.604548
O 23.6362 4.33587 -1.78732
O 24.1419 1.44827 -1.65209
O 19.8426 2.9753 0.368181
O 19.9625 3.5928 -2.33925
O 19.8525 1.16433 -1.64445
O 20.4835 7.88857 2.57491
Si 22.0826 8.25857 2.61817
Si 19.1757 6.91494 2.7281
O 21.6092 4.64544 4.28986
Si 23.0164 5.48277 4.08069
Si 19.9829 4.46911 4.3566
O 23.4901 5.57931 5.67489
O 22.8861 7.03064 3.43656
O 23.791 4.31685 3.14238
O 19.5722 4.05858 5.86848
O 19.3115 5.86295 3.9335
O 19.6093 3.50045 3.11965
O 19.3667 10.2634 -2.03393
Si 20.8995 10.8523 -1.98245
Si 18.1784 9.14536 -1.86774
O 20.8968 7.18119 -0.378955
Si 22.1786 8.20509 -0.554044
Si 19.3123 6.78771 -0.289225
O 22.6122 8.35806 1.04531
O 21.8661 9.72188 -1.20386
O 23.0899 7.13974 -1.48769
O 18.9616 6.34954 1.22708
O 18.442 8.06456 -0.71014
O 19.0511 5.77398 -1.51379
O 17.7108 12.7187 2.60619
Si 19.228 13.3726 2.60459
Si 16.4733 11.6608 2.39158
O 19.446 9.92857 3.81019
Si 20.7908 10.8729 3.97945
Si 17.8905 9.39142 3.85795
O 21.245 11.1089 5.5597
O 20.3684 12.3462 3.28906
O 21.8968 9.79885 3.2865
O 17.4238 9.33394 5.401
O 16.8881 10.1986 2.90297
O 18.0187 7.92312 3.20991
O 16.1318 14.7744 -2.33392
Si 17.5341 15.5675 -2.06379
Si 15.1713 13.472 -2.26857
O 18.2411 12.1013 -0.446229
Si 19.3582 13.2945 -0.566982
Si 16.7476 11.4741 -0.624975
O 19.652 13.6622 1.02585
O 18.7549 14.6407 -1.37341
O 20.568 12.3454 -1.26617
O 16.0601 11.5733 0.831635
O 15.9767 12.1676 -1.84072
O 16.9826 9.99475 -1.20576
O 14.521 16.2421 2.41183
Si 15.4741 17.5377 2.70976
Si 13.2655 15.2305 2.63345
O 16.382 14.3307 4.33059
Si 17.5026 15.5479 4.23262
Si 14.9926 13.4351 4.34981
O 17.9167 15.9235 5.8022
O 16.7952 16.8767 3.499
O 18.7653 14.7732 3.42784
O 14.6518 13.164 5.89863
O 13.7099 14.1003 3.66879
O 15.3289 12.1699 3.40797
O 12.7173 17.6937 -2.13154
Si 13.3286 19.2218 -2.0505
Si 11.6257 16.4852 -2.29813
O 14.3308 16.3627 -0.304672
Si 15.5223 17.5088 -0.456301
Si 13.3997 14.9973 -0.361827
O 15.8316 17.9178 1.12784
O 14.7343 18.7661 -1.2441
O 16.8772 16.8522 -1.19855
O 12.9835 14.6672 1.15401
O 12.1465 15.3317 -1.30951
O 14.1131 13.7704 -1.10381
O 10.4737 19.151 2.44165
Si 10.8975 20.7222 2.65864
Si 9.45873 17.8729 2.43664
O 12.1091 18.171 4.65053
Si 13.2567 19.3047 4.31574
Si 11.3461 16.7351 4.49266
O 13.6699 19.6211 5.90082
O 12.3128 20.4613 3.5361
O 14.5957 18.735 3.48409
O 11.3396 16.0291 5.94748
O 9.96815 16.9956 3.6914
O 11.9574 15.8868 3.26789
O 7.87886 20.3896 -1.8686
Si 8.22851 21.9962 -1.84132
Si 6.93497 19.0598 -1.70211
O 9.90243 19.3793 -0.574409
Si 10.8668 20.7145 -0.521546
Si 9.4462 17.7992 -0.599548
O 11.1568 21.1232 1.064
O 9.77117 21.8204 -1.17597
O 12.2962 20.3234 -1.31385
O 9.51495 17.2742 0.93184
O 7.9399 17.9212 -1.16423
O 10.1951 16.9188 -1.71614
O 5.2494 21.2352 2.75674
Si 5.4606 22.8601 2.80117
Si 4.41992 19.8278 2.8574
O 7.35794 20.5153 4.20121
Si 8.22519 21.9104 4.12834
Si 7.05079 18.927 3.95678
O 8.48984 22.3009 5.72021
O 7.01038 22.8747 3.46617
O 9.68547 21.6758 3.32923
O 7.12596 18.2684 5.42707
O 5.57367 18.8298 3.34769
O 7.96426 18.2992 2.80221
O 3.08574 21.8141 -2.42471
Si 2.86937 23.4335 -2.19358
Si 2.644 20.2416 -2.54343
O 4.61366 21.51 -0.257189
Si 5.45118 22.9246 -0.37611
Si 4.44138 19.887 -0.156507
O 5.51233 23.3829 1.22301
O 4.26437 23.6971 -1.28914
O 6.99851 22.8032 -1.02551
O 3.9602 19.5219 1.34116
O 3.47086 19.4997 -1.37953
O 5.84223 19.2027 -0.532397
O 0.47219 22.0204 2.29193
Si 0.0302495 23.5955 2.49419
Si 0.201823 20.412 2.17994
O 1.96697 21.8913 4.57791
Si 2.62832 23.3882 4.3438
Si 1.97111 20.2553 4.62837
O 2.71829 23.8165 5.95158
O 1.3542 24.0187 3.44322
O 4.15015 23.492 3.63904
O 1.73119 19.745 6.14689
O 1.00475 19.7743 3.42754
O 3.38993 19.7473 4.08484
O -2.52434 21.8453 -1.95783
Si -2.96303 23.43 -1.97735
Si -2.73239 20.2233 -1.81925
O -0.277558 21.9638 -0.700166
Si -0.0253137 23.5884 -0.683135
Si 0.109855 20.376 -0.84731
O 0.0801465 24.0802 0.902283
O -1.52594 24.0277 -1.32116
O 1.40591 23.8954 -1.50804
O 0.511436 19.9422 0.661664
O -1.28349 19.7267 -1.32507
O 1.12274 20.0798 -2.05945
O -5.15265 21.3752 2.65413
Si -5.77206 22.8966 2.66447
Si -5.17158 19.7433 2.81252
O -2.95002 21.7649 3.98228
Si -2.88117 23.4056 3.96331
Si -2.37629 20.243 3.78497
O -2.82015 23.9015 5.54741
O -4.41891 23.6635 3.31878
O -1.49617 23.8719 3.13795
O -1.89978 19.8348 5.27741
O -3.67126 19.4259 3.29612
O -1.3245 20.1245 2.57897
O -7.35424 20.787 -2.53834
Si -8.32382 22.108 -2.35238
Si -7.00867 19.1892 -2.63113
O -5.89435 21.2653 -0.329866
Si -5.83694 22.9049 -0.509041
Si -5.28443 19.7507 -0.214636
O -5.98355 23.3623 1.08331
O -7.24507 23.0078 -1.42601
O -4.43222 23.5491 -1.17031
O -5.46259 19.2269 1.30595
O -5.98546 18.9277 -1.41162
O -3.73851 19.7929 -0.643593
O -9.8018 19.8006 2.10601
Si -10.9388 20.9819 2.29434
Si -9.25924 18.2601 2.00796
O -8.42969 20.4267 4.33305
Si -8.56394 22.0593 4.13871
Si -7.63504 19.0008 4.4453
O -8.76404 22.4962 5.73122
O -9.96676 22.0047 3.21116
O -7.2382 22.8535 3.48089
O -7.74615 18.4587 5.9662
O -8.21155 18.1141 3.22646
O -6.10754 19.2313 4.01241
O -12.5884 17.9056 -1.85923
Si -13.4672 19.2877 -2.14071
Si -11.7224 16.5069 -2.02917
O -10.4507 19.3165 -0.862295
Si -10.9686 20.874 -0.877624
Si -9.36132 18.1058 -1.01732
O -11.1283 21.3921 0.693154
O -12.4836 20.5064 -1.52121
O -9.84745 21.8099 -1.70785
O -8.78764 17.9524 0.490751
O -10.2501 16.8412 -1.46687
O -8.31447 18.3519 -2.21325
O -14.4404 16.6031 2.52623
Si -15.7213 17.6278 2.51193
Si -13.6744 15.1687 2.6966
O -12.6944 18.0053 3.80072
Si -13.4265 19.4756 3.78511
Si -11.4547 16.9417 3.65902
O -13.6449 19.956 5.36136
O -14.8976 18.9614 3.13757
O -12.4151 20.5315 2.95874
O -10.8864 16.8284 5.16941
O -12.2066 15.6031 3.18545
O -10.4473 17.2809 2.45664
O -16.2811 14.885 -2.57828
Si -17.7099 15.6618 -2.37575
Si -15.3622 13.5513 -2.46432
O -14.5991 16.3472 -0.606388
Si -15.7407 17.5423 -0.66625
Si -13.7353 14.9624 -0.346618
O -16.1026 17.886 0.917016
O -17.0771 16.9424 -1.48664
O -14.8994 18.8111 -1.38835
O -13.6535 14.5324 1.21029
O -14.2802 13.794 -1.30759
O -12.3375 15.3853 -1.04209
O -17.8825 12.9884 2.08039
Si -19.4391 13.5082 2.24866
Si -16.6862 11.873 2.08861
O -16.8748 14.2553 4.25895
Si -17.7953 15.6022 4.02401
Si -15.4906 13.3907 4.38681
O -18.1844 15.905 5.61307
O -19.0275 14.8844 3.12898
O -16.999 16.9148 3.33838
O -15.343 12.8598 5.90595
O -15.6291 12.292 3.22011
O -14.2494 14.2909 3.91507
O -19.2631 10.4709 -2.83126
Si -20.8192 10.9331 -2.56502
Si -17.9497 9.49395 -2.80814
O -18.4411 12.1738 -0.644889
Si -19.5371 13.366 -0.908471
Si -16.9595 11.5403 -0.861741
O -19.9048 13.7469 0.669294
O -20.6306 12.383 -1.73158
O -18.917 14.7182 -1.68753
O -16.2305 11.6558 0.562287
O -17.0843 10.1242 -1.60634
O -16.2786 12.3187 -2.07165
O -20.4348 7.60219 2.10259
Si -21.9204 8.32831 2.15516
Si -18.8243 7.27282 1.97506
O -19.5611 10.0094 3.88335
Si -20.8771 10.9632 3.70281
Si -17.9927 9.62503 3.68324
O -21.3306 11.2577 5.27581
O -21.8326 9.82699 2.90895
O -20.491 12.4064 2.94711
O -17.3836 9.75254 5.16849
O -17.9798 8.17072 3.00729
O -17.2655 10.4533 2.52778
O -21.211 5.33148 -2.38894
Si -22.8437 5.50476 -2.36164
Si -19.7769 4.55315 -2.23729
O -20.5452 7.44484 -0.942713
Si -21.9572 8.2803 -1.0236
Si -18.9343 7.19175 -1.07163
O -22.3719 8.52086 0.567472
O -22.8941 7.04908 -1.69061
O -21.7546 9.73053 -1.85117
O -18.3465 7.35273 0.428897
O -18.814 5.69264 -1.63876
O -18.284 8.02024 -2.28591
O -21.6843 2.77859 2.25477
Si -23.3221 2.73375 2.31852
Si -20.1793 2.1684 2.43457
O -21.1064 5.21597 3.44195
Si -22.7022 5.58784 3.66246
Si -19.514 4.84807 3.65451
O -23.1104 5.70154 5.26477
O -23.5049 4.2602 3.00948
O -22.7886 7.09735 2.91592
O -19.0297 4.90653 5.19837
O -19.3065 3.39797 2.9907
O -18.6946 5.82511 2.66891
O -21.9994 0.502124 -2.90533
Si -23.5757 0.0613699 -2.70353
Si -20.3884 0.244158 -3.01895
O -21.8943 2.00865 -0.664105
Si -23.399 2.66046 -0.855399
Si -20.2596 2.02544 -0.587249
O -23.86 2.71471 0.744237
O -24.0154 1.38978 -1.76987
O -23.4893 4.18993 -1.54283
O -19.799 1.70663 0.930496
O -19.7597 1.07822 -1.79119
O -19.7366 3.46616 -1.05514
O -21.9109 -2.15293 1.76555
Si -23.4257 -2.77497 1.97033
Si -20.2796 -2.20441 1.63956
O -21.9769 -0.63986 4.00351
Si -23.5464 -0.166305 3.81444
Si -20.3586 -0.40764 4.06031
O -24.0099 -0.164387 5.41419
O -24.0137 -1.49956 2.89886
O -23.8021 1.35127 3.14075
O -19.8478 -0.673823 5.57075
O -19.7518 -1.27301 2.84456
O -20.0579 1.10601 3.63153
O -21.3382 -5.11175 -2.46535
Si -22.8595 -5.73363 -2.48339
Si -19.7041 -5.11808 -2.32094
O -21.7555 -2.90097 -1.21314
Si -23.3974 -2.83882 -1.20657
Si -20.2331 -2.31694 -1.38317
O -23.9062 -2.79321 0.376157
O -23.6408 -4.38253 -1.8428
O -23.8608 -1.4581 -2.0441
O -19.8547 -1.85133 0.119878
O -19.4019 -3.61311 -1.84307
O -20.0878 -1.27247 -2.59335
O -20.592 -7.65371 2.21108
Si -22.0264 -8.45604 2.19472
Si -18.9682 -7.46906 2.35014
O -21.2583 -5.49918 3.41936
Si -22.8958 -5.63624 3.45951
Si -19.8137 -4.73832 3.26386
O -23.397 -5.65923 5.04468
O -22.9596 -7.2009 2.82903
O -23.5288 -4.31515 2.63622
O -19.4875 -4.24621 4.76963
O -18.8404 -5.93225 2.80423
O -19.7802 -3.66736 2.06876
O -19.7518 -9.77982 -2.96264
Si -20.9446 -10.9073 -2.79818
Si -18.2116 -9.23891 -3.07648
O -20.3917 -8.36537 -0.797903
Si -22.0244 -8.51304 -0.981897
Si -18.9632 -7.57563 -0.675936
O -22.4594 -8.71619 0.61099
O -21.967 -9.92856 -1.8889
O -22.8213 -7.19876 -1.66184
O -18.4239 -7.69611 0.843446
O -18.0663 -8.17988 -1.87066
O -19.1718 -6.04958 -1.12563
O -18.4527 -12.104 1.69993
Si -19.5014 -13.3659 1.87154
Si -16.9899 -11.3794 1.58225
O -19.2504 -10.7758 3.86832
Si -20.8547 -11.1158 3.69033
Si -17.9285 -9.81807 3.98638
O -21.2514 -11.3717 5.28567
O -20.6322 -12.5131 2.78002
O -21.8074 -9.90371 3.01991
O -17.3688 -9.87652 5.50181
O -16.9729 -10.3045 2.78298
O -18.3305 -8.32817 3.54732
O -16.565 -14.4424 -2.51698
Si -17.6077 -15.7122 -2.56457
Si -15.1196 -13.6861 -2.35014
O -17.9612 -12.6707 -1.3144
Si -19.4373 -13.3931 -1.30457
Si -16.8867 -11.4382 -1.44197
O -19.9085 -13.6006 0.275811
O -18.9328 -14.8752 -1.93625
O -20.4962 -12.3848 -2.13338
O -16.7773 -10.8624 0.0656908
O -15.5477 -12.2081 -1.88626
O -17.2213 -10.4225 -2.63902
O -14.7355 -16.3492 2.1153
Si -15.6171 -17.7359 2.09448
Si -13.3903 -15.4291 2.2946
O -16.3226 -14.7524 3.34691
Si -17.7004 -15.6483 3.36393
Si -15.4014 -13.4016 3.21431
O -18.1316 -15.9134 4.9475
O -17.0296 -17.0589 2.72412
O -18.8787 -14.7753 2.54337
O -15.3455 -12.8212 4.72355
O -13.9863 -14.0087 2.75282
O -15.8596 -12.4295 2.02181
O -12.9774 -17.8109 -3.09696
Si -13.4707 -19.375 -2.91331
Si -11.8695 -16.6084 -3.13986
O -14.1915 -16.8928 -0.863537
Si -15.5604 -17.7877 -1.08218
Si -13.3096 -15.5204 -0.727143
O -15.8599 -18.1754 0.509129
O -14.8398 -18.9982 -2.00624
O -16.8826 -16.9916 -1.75025
O -12.7846 -15.378 0.795099
O -12.2383 -15.6163 -1.92695
O -14.2256 -14.2747 -1.15432
O -10.7892 -19.2527 1.54009
Si -11.0876 -20.8639 1.74321
Si -9.84609 -17.9177 1.48023
O -12.0796 -18.497 3.79826
Si -13.3377 -19.5426 3.58788
Si -11.376 -17.0255 3.92106
O -13.5672 -19.9608 5.18338
O -12.4884 -20.6547 2.65271
O -14.7475 -18.9077 2.92785
O -10.847 -16.8162 5.43436
O -10.3323 -16.9762 2.69362
O -12.452 -15.9123 3.50333
O -7.90993 -20.2954 -2.90701
Si -8.25832 -21.9018 -2.82347
Si -7.08992 -18.8762 -2.8357
O -9.98469 -19.5106 -1.35239
Si -10.9488 -20.8365 -1.42717
Si -9.63749 -17.923 -1.53311
O -11.2804 -21.2778 0.141752
O -9.79174 -21.845 -2.12669
O -12.3641 -20.4443 -2.23965
O -9.81904 -17.3484 -0.0323668
O -8.13853 -17.8879 -2.11403
O -10.4535 -17.2256 -2.72358
O -5.49928 -21.1677 1.78387
Si -5.62898 -22.8055 1.88634
Si -4.83927 -19.6739 1.93121
O -7.64462 -20.5759 3.29401
Si -8.42543 -22.0182 3.24958
Si -7.49875 -18.954 3.13166
O -8.67712 -22.483 4.82665
O -7.16676 -22.9065 2.56641
O -9.87464 -21.8002 2.43146
O -7.6903 -18.4152 4.64462
O -6.014 -18.7678 2.54845
O -8.36919 -18.3341 1.93526
O -2.80398 -21.7908 -2.9214
Si -2.75841 -23.4258 -2.79599
Si -2.22275 -20.2748 -2.73935
O -4.88127 -21.2913 -1.08677
Si -5.52473 -22.7962 -1.28388
Si -4.67492 -19.6622 -1.10757
O -5.67797 -23.2908 0.296922
O -4.25677 -23.6033 -2.04416
O -7.01963 -22.7304 -2.04807
O -4.41421 -19.2321 0.433598
O -3.43251 -19.4309 -2.10223
O -5.87974 -18.8438 -1.7773
O -0.338561 -22.0639 1.61351
Si -0.016919 -23.6545 1.84308
Si -0.00135447 -20.4895 1.85125
O -2.33408 -21.7998 3.69696
Si -2.79791 -23.356 3.42587
Si -2.3688 -20.1621 3.65017
O -2.83766 -23.8365 5.01939
O -1.47089 -24.0063 2.61995
O -4.30803 -23.4613 2.69373
O -2.03586 -19.6796 5.15951
O -1.28799 -19.8012 2.5172
O -3.74846 -19.5711 3.1038
O 2.18039 -21.9825 -3.37649
Si 2.78861 -23.4959 -3.12907
Si 2.2413 -20.3495 43.5395
O 0.601972 -22.0883 -1.14039
Si 0.149074 -23.6648 -1.3213
Si 0.361087 -20.4699 -1.12322
O 0.102366 -24.1741 0.264761
O 1.50468 -24.1034 -2.22261
O -1.35945 -23.9146 -2.01221
O 0.496505 -19.9789 0.407346
O 1.27601 -19.8429 -2.28775
O -1.14009 -20.1466 -1.56696
O 5.22842 -21.3075 1.45884
Si 5.53913 -22.9275 1.58877
Si 4.49697 -19.8368 1.28246
O 3.08798 -21.8407 3.5814
Si 2.89208 -23.4449 3.33784
Si 2.52032 -20.3274 3.51615
O 2.97261 -23.8643 4.94829
O 4.28564 -23.6652 2.42402
O 1.42562 -23.9103 2.66408
O 2.67137 -19.6579 4.96619
O 3.24833 -19.6308 2.26957
O 0.985282 -20.3567 3.10286
O 7.62091 -20.6247 -2.82948
Si 8.42929 -22.0559 -2.89017
Si 7.40733 -19.001 -2.73797
O 5.47771 -21.3025 -1.56136
Si 5.6243 -22.9364 -1.58952
Si 4.71384 -19.8682 -1.74946
O 5.6202 -23.4196 0.00180008
O 7.18908 -22.9902 -2.22309
O 4.31941 -23.5771 -2.43485
O 4.18557 -19.4999 -0.26695
O 5.89444 -18.8847 -2.21432
O 3.68874 -19.8553 -2.9885
O 9.91569 -19.6366 1.58765
Si 10.9476 -20.8988 1.73079
Si 9.49241 -18.0801 1.7953
O 7.43355 -20.6043 2.88374
Si 8.24805 -22.0417 3.08727
Si 6.89075 -19.0447 2.97665
O 8.43067 -22.4828 4.68257
O 9.78538 -21.9131 2.41496
O 7.0536 -22.9618 2.32577
O 6.70814 -18.6381 4.53398
O 7.95717 -18.0879 2.25074
O 5.58636 -18.9099 2.03575
O 12.1714 -18.264 43.585
Si 13.3549 -19.3854 -3.17661
Si 11.4644 -16.784 43.5554
O 10.738 -19.2304 -1.31618
Si 11.0876 -20.8396 -1.43613
Si 9.79323 -17.8994 -1.19824
O 11.3048 -21.2813 0.152573
O 12.497 -20.5515 -2.31748
O 9.90326 -21.8132 -2.12242
O 9.7544 -17.425 0.343719
O 10.3224 -16.8735 -2.32151
O 8.29556 -18.2683 -1.62769
O 14.6094 -16.3183 1.35394
Si 15.5768 -17.6466 1.59359
Si 13.3296 -15.2723 1.39063
O 12.8239 -17.9033 3.52838
Si 13.432 -19.3939 3.24637
Si 11.6681 -16.7729 3.42277
O 13.7817 -19.7455 4.83635
O 14.7599 -18.9021 2.34539
O 12.34 -20.4839 2.57738
O 11.6104 -16.0827 4.86905
O 12.0591 -15.8148 2.20319
O 10.273 -17.4329 3.02952
O 16.6477 -14.2548 -2.91569
Si 17.6882 -15.5464 -2.90066
Si 15.3432 -13.2446 -2.89434
O 14.6276 -16.2938 -1.35122
Si 15.5815 -17.6041 -1.57728
Si 13.4226 -15.235 -1.64893
O 15.8869 -18.0392 0.00246423
O 16.9487 -16.8997 -2.24639
O 14.7378 -18.7734 -2.44022
O 12.8899 -14.9677 -0.140092
O 14.0587 -13.8611 -2.16762
O 12.4472 -15.6531 -2.86681
O 18.1589 -12.3303 2.23999
Si 19.3823 -13.4069 1.9758
Si 16.6745 -11.6272 2.18539
O 16.0745 -14.9595 3.29738
Si 17.5347 -15.7356 3.30169
Si 14.955 -13.7754 3.50063
O 17.912 -16.0839 4.88475
O 18.7916 -14.8293 2.65188
O 16.9177 -17.0386 2.4154
O 14.5571 -13.6883 5.07359
O 15.5911 -12.3501 3.11917
O 13.8248 -14.0803 2.37695
O 19.6521 -9.90934 -2.78425
Si 20.9295 -10.936 -2.71055
Si 18.0868 -9.48127 -2.59671
O 17.897 -12.799 -0.951557
Si 19.3966 -13.4136 -1.21048
Si 16.7959 -11.6037 -0.847622
O 19.7676 -13.6911 0.385677
O 20.4988 -12.3483 -1.90441
O 18.9487 -14.794 -2.06866
O 16.2078 -11.5301 0.647298
O 17.4161 -10.2187 -1.34083
O 15.7204 -11.9921 -1.97097
O 20.898 -7.29119 1.63405
Si 22.2074 -8.2759 1.83521
Si 19.3019 -6.93141 1.55982
O 19.428 -10.3853 3.3196
Si 20.9753 -10.9351 3.2931
Si 18.2379 -9.26589 3.19635
O 21.4947 -11.0823 4.86556
O 21.9092 -9.80394 2.47214
O 20.6139 -12.4527 2.6387
O 18.1269 -8.66492 4.69319
O 18.47 -8.23586 1.9871
O 16.9666 -10.1641 2.78941
O 21.6786 -4.6615 -2.97425
Si 23.0808 -5.50951 -2.77786
Si 20.0556 -4.48243 -3.06274
O 20.5647 -7.91554 -1.29881
Si 22.1612 -8.29908 -1.33983
Si 19.247 -6.95468 -1.46904
O 22.6671 -8.41428 0.240609
O 22.9667 -7.05685 -2.13269
O 22.0147 -9.83418 -2.02964
O 18.9493 -6.47043 0.0479056
O 19.3731 -5.86933 -2.64357
O 18.1507 -7.96409 -2.07191
O 21.9552 -2.46878 2.27727
Si 23.5383 -2.91026 2.27731
Si 20.3358 -2.67867 2.43454
O 21.3807 -5.86611 3.90558
Si 23.0179 -5.80536 3.70665
Si 19.8699 -5.24535 4.00853
O 23.4936 -5.94177 5.29563
O 23.6558 -4.39002 3.06301
O 23.1122 -7.20403 2.76973
O 19.3534 -5.39689 5.535
O 19.9285 -3.69379 3.60725
O 19.048 -5.91868 2.79257
O 22.0963 0.207631 -2.36344
Si 23.72 -0.0381637 -2.33322
Si 20.5198 -0.199244 -2.17381
O 21.9536 -3.23613 -0.68563
Si 23.5677 -2.97062 -0.895882
Si 20.3839 -2.78976 -0.585917
O 24.0358 -3.05917 0.698297
O 24.0199 -1.48423 -1.53477
O 23.8449 -4.33707 -1.84037
O 19.8633 -3.02545 0.926074
O 20.2755 -1.24102 -0.980005
O 19.663 -3.51979 -1.83008
O 21.83 2.76908 11.7855
Si 23.4685 2.74962 11.862
Si 20.3371 2.12795 11.9748
O 22.1553 -0.677433 13.5251
Si 23.713 -0.175757 13.3094
Si 20.5358 -0.454998 13.5768
O 24.181 -0.147446 14.9078
O 23.9514 1.35789 12.6661
O 24.1856 -1.49407 12.3687
O 20.0187 -0.702365 15.0901
O 20.249 1.06776 13.1737
O 19.935 -1.28922 12.332
O 21.3468 5.31242 7.20038
Si 22.9751 5.50999 7.25556
Si 19.9366 4.49967 7.38363
O 22.0909 1.938 8.89404
Si 23.5734 2.63634 8.69302
Si 20.4574 1.94222 8.96417
O 24.023 2.71564 10.2944
O 23.6352 4.17955 8.03519
O 24.1974 1.38457 7.75317
O 19.9845 1.62613 10.4776
O 19.9539 3.40456 8.55476
O 19.9531 1.04567 7.72363
O 20.3208 8.0898 11.7144
Si 21.9413 8.3608 11.8466
Si 18.8895 7.29058 11.6557
O 21.295 4.91715 13.3574
Si 22.8099 5.56106 13.2857
Si 19.6626 4.78178 13.2321
O 23.2789 5.71884 14.8713
O 22.7548 7.07384 12.5574
O 23.6351 4.27709 12.5644
O 19.0958 4.8602 14.7463
O 18.9794 5.78027 12.1793
O 19.449 3.34783 12.5306
O 19.3145 10.3833 6.86306
Si 20.8522 10.8782 7.15982
Si 18.0495 9.35092 6.88605
O 20.6604 7.37291 8.80923
Si 22.0502 8.23953 8.67799
Si 19.0605 7.08593 8.63274
O 22.4438 8.51941 10.2692
O 21.8092 9.69055 7.86541
O 23.0016 7.03483 7.97758
O 18.4215 7.29506 10.1039
O 18.4491 7.89543 7.39311
O 18.9616 5.59396 8.04425
O 17.7901 12.7953 11.7523
Si 19.3078 13.4104 11.9634
Si 16.5823 11.6862 11.7427
O 19.4797 9.94538 13.5437
Si 20.7997 10.9192 13.4358
Si 17.9029 9.50862 13.4482
O 21.2318 11.2437 15.0104
O 20.3897 12.3566 12.6844
O 21.8408 9.83985 12.6585
O 17.3423 9.60671 14.9568
O 17.0245 10.2765 12.3515
O 17.9655 8.06816 12.7239
O 16.2204 14.7677 7.16205
Si 17.6175 15.5776 7.40574
Si 15.3172 13.4356 7.33553
O 18.4118 12.0531 9.04535
Si 19.4832 13.2747 8.80876
Si 16.9577 11.3694 8.79207
O 19.8081 13.6565 10.3955
O 18.8491 14.6265 8.03895
O 20.6138 12.3216 7.99526
O 16.2012 11.4175 10.2052
O 16.2431 12.1791 7.62125
O 17.1365 9.95899 8.05709
O 14.1824 16.4907 12.2068
Si 15.4723 17.5087 12.302
Si 13.354 15.0989 12.4529
O 16.6958 14.132 13.8377
Si 17.6155 15.488 13.7253
Si 15.3104 13.2729 13.9486
O 18.021 15.7618 15.3152
O 16.7735 16.7967 13.0913
O 18.8568 14.7905 12.8205
O 15.2632 12.6592 15.4437
O 14.0355 14.1779 13.5875
O 15.4493 12.215 12.7473
O 12.8957 17.5796 7.31977
Si 13.4355 19.1323 7.4763
Si 11.844 16.3328 7.45722
O 14.4996 16.2711 9.45641
Si 15.6234 17.4459 9.12911
Si 13.6545 14.855 9.42073
O 15.8988 17.8442 10.7269
O 14.822 18.6837 8.32227
O 16.9699 16.8166 8.34508
O 13.234 14.4932 10.9479
O 12.4886 15.1361 8.33087
O 14.4069 13.6708 8.63652
O 10.2756 19.1897 11.7506
Si 10.8192 20.7176 12.0324
Si 9.21279 17.9474 11.8049
O 12.1582 17.9871 13.5263
Si 13.1696 19.2915 13.6866
Si 11.1384 16.7093 13.7656
O 13.3962 19.746 15.2698
O 12.2464 20.4349 12.87
O 14.6326 18.7805 13.0263
O 10.7167 16.5495 15.3147
O 9.86172 16.8817 12.8098
O 11.9363 15.4602 13.1316
O 7.58807 20.3185 7.03326
Si 8.31881 21.7786 7.28865
Si 7.29288 18.7003 6.97484
O 10.0548 19.2765 9.12647
Si 10.9064 20.6471 8.87264
Si 9.51557 17.7688 8.82466
O 11.0855 21.1612 10.4477
O 9.81796 21.6014 8.02165
O 12.3792 20.2193 8.1958
O 8.99696 17.411 10.3058
O 8.42117 17.7909 7.65837
O 10.6339 16.6963 8.44428
O 5.45637 21.0454 11.7961
Si 5.55624 22.6655 12.0354
Si 4.80062 19.5522 11.8663
O 7.39464 20.5423 13.912
Si 8.23957 21.9208 13.6317
Si 7.07937 18.9539 13.7346
O 8.54563 22.3413 15.2164
O 7.01165 22.7854 12.8708
O 9.6628 21.6756 12.7795
O 7.37992 18.2925 15.1734
O 5.6143 18.8503 13.0692
O 7.81437 18.351 12.4442
O 2.82302 21.6061 7.44654
Si 2.75474 23.2449 7.51338
Si 2.24421 20.0897 7.64784
O 5.34437 20.9833 8.64435
Si 5.62131 22.6085 8.84735
Si 4.96084 19.3833 8.81439
O 5.72905 23.0868 10.435
O 4.29355 23.4051 8.18661
O 7.13208 22.6592 8.09708
O 4.97259 18.9438 10.3746
O 3.50037 19.2099 8.14683
O 5.97245 18.528 7.88979
O 0.000786812 21.8333 12.1073
Si -0.187292 23.4635 12.1416
Si -0.445227 20.2626 12.2346
O 2.18798 21.6468 13.6373
Si 2.69425 23.207 13.526
Si 2.2711 20.0191 13.4937
O 2.8216 23.6807 15.1131
O 1.30021 23.8491 12.8318
O 4.1697 23.3197 12.7268
O 2.50584 19.4582 14.9911
O 0.863537 19.5744 12.8625
O 3.27537 19.5507 12.3352
O -2.17736 21.8784 6.9422
Si -2.78365 23.403 7.13292
Si -2.21384 20.2455 6.81075
O -0.617815 21.914 9.13497
Si -0.166414 23.4898 8.96909
Si -0.372878 20.2975 9.20724
O -0.228696 23.9721 10.5599
O -1.48636 23.9731 8.04317
O 1.3751 23.7277 8.34193
O -0.740758 19.8131 10.7082
O -1.23141 19.7107 7.97352
O 1.15717 19.9862 8.8295
O -4.86751 21.5371 11.5653
Si -5.66434 22.9656 11.7703
Si -4.75918 19.9111 11.4466
O -3.38932 21.7642 13.8253
Si -3.09506 23.3764 13.6232
Si -3.01428 20.1724 13.8928
O -3.14437 23.8489 15.2187
O -4.47092 23.692 12.7077
O -1.62192 23.804 12.9413
O -3.20263 19.6533 15.4131
O -3.83186 19.4771 12.6913
O -1.50177 19.9654 13.4074
O -7.68806 20.6285 7.31611
Si -8.4895 22.0639 7.31239
Si -7.50827 19.0056 7.47261
O -5.5247 21.2703 8.51664
Si -5.66466 22.9077 8.59089
Si -4.77198 19.8143 8.42167
O -5.71288 23.4223 10.1708
O -7.22375 22.9857 7.94508
O -4.31937 23.5333 7.80255
O -4.32232 19.5063 9.94473
O -5.97532 18.8598 7.93972
O -3.6636 19.7237 7.26283
O -10.1875 19.594 11.9837
Si -11.1468 20.9282 11.9682
Si -9.81593 18.0028 12.1292
O -8.14616 20.5199 13.244
Si -8.46005 22.1325 13.2486
Si -7.22259 19.1783 13.0629
O -8.53615 22.644 14.8292
O -10.0171 22.006 12.6088
O -7.21408 22.8957 12.4182
O -6.6734 18.9254 14.563
O -8.28316 18.0626 12.6067
O -6.17957 19.2899 11.8502
O -12.1417 18.5147 6.78426
Si -13.4084 19.5584 6.95967
Si -11.4113 17.0533 6.6819
O -10.833 19.3109 8.9815
Si -11.1688 20.9142 8.79232
Si -9.87409 17.9904 9.1031
O -11.4445 21.3233 10.3812
O -12.5568 20.6919 7.86701
O -9.93801 21.8547 8.13871
O -9.95135 17.435 10.62
O -10.3466 17.0375 7.89193
O -8.38052 18.3918 8.67416
O -14.3204 16.9558 11.4602
Si -15.7075 17.8317 11.631
Si -13.4243 15.5919 11.3473
O -13.1302 17.903 13.6526
Si -13.6544 19.4556 13.4606
Si -12.0242 16.703 13.7751
O -13.9562 19.8316 15.053
O -15.0103 19.0591 12.5466
O -12.5633 20.5419 12.7857
O -12.0091 16.1519 15.2942
O -12.3802 15.6939 12.5704
O -10.5933 17.2734 13.3292
O -16.3725 14.7741 7.26012
Si -17.7631 15.6497 7.20022
Si -15.4331 13.4381 7.41315
O -14.7952 16.389 8.43882
Si -15.6964 17.7631 8.45506
Si -13.4347 15.4804 8.32535
O -15.9742 18.2068 10.0324
O -17.102 17.0726 7.82426
O -14.82 18.9369 7.63012
O -12.8644 15.4491 9.83839
O -14.0252 14.0524 7.8852
O -12.465 15.929 7.12749
O -18.0495 12.7089 11.9047
Si -19.5374 13.4051 11.8545
Si -16.9611 11.4933 12.0687
O -16.6879 14.5014 13.1183
Si -17.7498 15.7556 13.1187
Si -15.2288 13.766 12.9786
O -18.0693 16.164 14.6982
O -19.0581 14.8972 12.4839
O -17.0302 17.029 12.2898
O -14.6406 13.8071 14.4853
O -15.6374 12.277 12.5336
O -14.3404 14.3471 11.7751
O -19.2705 10.7586 6.69011
Si -20.8807 11.0684 6.86667
Si -17.9444 9.80173 6.67812
O -18.4924 12.1162 8.899
Si -19.5616 13.353 8.67792
Si -17.0213 11.413 9.04537
O -19.9904 13.5977 10.267
O -20.6741 12.4801 7.76223
O -18.9438 14.7669 8.00869
O -16.8191 10.9107 10.5674
O -16.9946 10.3146 7.869
O -15.8927 12.4633 8.60308
O -20.4039 8.38268 11.3117
Si -22.0402 8.47934 11.4991
Si -18.9663 7.60283 11.2824
O -19.8289 9.79431 13.5506
Si -21.0336 10.9005 13.3317
Si -18.2811 9.28058 13.6896
O -21.4843 11.0939 14.9224
O -22.0218 9.89897 12.4053
O -20.5947 12.381 12.6661
O -18.011 8.81058 15.212
O -18.1016 8.21556 12.494
O -17.306 10.4804 13.2641
O -21.1363 5.01436 6.912
Si -22.6862 5.58101 6.86242
Si -19.5073 4.86459 6.74419
O -20.5656 7.58897 8.48982
Si -21.9947 8.36887 8.33344
Si -18.96 7.41566 8.27815
O -22.4896 8.61787 9.9019
O -22.7976 7.09769 7.57537
O -21.7917 9.8347 7.54678
O -18.3942 7.64549 9.77312
O -18.758 5.9444 7.67177
O -18.3716 8.31984 7.09542
O -21.5551 2.43855 11.6832
Si -23.1681 2.79054 11.5815
Si -19.9138 2.42598 11.5408
O -21.298 5.07143 13.1024
Si -22.8157 5.67168 12.9858
Si -19.6813 5.11984 12.9014
O -23.3337 5.87082 14.5538
O -23.4673 4.29592 12.2646
O -22.7938 7.13945 12.1744
O -19.1641 5.43373 14.401
O -19.2814 3.67132 12.3376
O -19.2135 6.0797 11.7059
O -21.8501 0.141974 6.87887
Si -23.4657 -0.0962818 6.98471
Si -20.2859 -0.273169 7.07501
O -21.5131 2.75705 8.29927
Si -23.1646 2.78905 8.38783
Si -19.9121 2.39659 8.45184
O -23.6057 2.84263 9.98415
O -23.7941 1.38917 7.70636
O -23.4291 4.26928 7.62186
O -19.4282 2.35882 9.99699
O -19.5716 1.04097 7.65737
O -19.1749 3.50162 7.53759
O -21.7186 -2.48678 11.4795
Si -23.2888 -2.91232 11.6389
Si -20.117 -2.68801 11.692
O -21.6998 0.147248 13.1352
Si -23.3456 -0.0383191 13.107
Si -20.0691 -0.0843823 13.2323
O -23.8308 -0.0543903 14.6942
O -23.7865 -1.48999 12.3881
O -23.7625 1.40431 12.3383
O -19.6106 -0.244319 14.778
O -19.5919 -1.29603 12.29
O -19.445 1.17843 12.449
O -21.4874 -4.79394 6.42239
Si -22.918 -5.58679 6.63728
Si -19.8623 -4.65485 6.28748
O -21.7364 -3.28586 8.65228
Si -23.3524 -3.00516 8.47228
Si -20.1573 -2.86009 8.68794
O -23.8233 -3.04551 10.069
O -23.6552 -4.38954 7.56324
O -23.7817 -1.53024 7.79497
O -19.6161 -3.03989 10.1982
O -19.4494 -3.65811 7.48343
O -20.0402 -1.32189 8.26284
O -20.7366 -7.34558 11.0869
Si -22.0627 -8.30221 11.3051
Si -19.1409 -7.0079 10.9486
O -21.1742 -5.85206 13.3101
Si -22.8117 -5.78278 13.1241
Si -19.6633 -5.22647 13.32
O -23.2841 -5.86534 14.7177
O -22.9409 -7.19961 12.225
O -23.4218 -4.37802 12.4399
O -19.1011 -5.28715 14.8303
O -18.8583 -5.95088 12.1307
O -19.7429 -3.69108 12.8829
O -19.5172 -10.0929 6.88636
Si -20.8459 -11.0603 6.86737
Si -17.9257 -9.71602 7.01226
O -20.4343 -8.03131 8.0868
Si -22.044 -8.36174 8.12806
Si -19.0911 -7.10469 7.92384
O -22.534 -8.43985 9.71479
O -21.9213 -9.92458 7.50183
O -22.8332 -7.12799 7.30375
O -18.8224 -6.56815 9.42605
O -17.9822 -8.1747 7.46602
O -19.19 -6.04496 6.72192
O -18.1504 -12.3636 11.5394
Si -19.3525 -13.4841 11.5385
Si -16.6157 -11.8007 11.6707
O -19.2972 -10.4214 12.7564
Si -20.8547 -10.9444 12.8012
Si -18.0729 -9.34322 12.5906
O -21.3226 -11.0782 14.3906
O -20.5517 -12.4819 12.1747
O -21.7918 -9.81803 11.979
O -17.854 -8.77986 14.0909
O -16.8503 -10.2754 12.1209
O -18.2972 -8.29861 11.3916
O -16.8568 -14.2529 6.35942
Si -17.7468 -15.6297 6.54126
Si -15.4891 -13.3621 6.24036
O -17.8038 -13.0275 8.53392
Si -19.3572 -13.5568 8.36238
Si -16.6029 -11.9209 8.64579
O -19.7193 -13.8515 9.95933
O -18.9687 -14.9192 7.4544
O -20.4514 -12.4711 7.69128
O -16.041 -11.9039 10.1617
O -15.5965 -12.2943 7.44321
O -17.1786 -10.4899 8.20413
O -15.0159 -16.1723 11.0175
Si -15.7337 -17.6449 11.2131
Si -13.7663 -15.1221 10.8977
O -16.0927 -15.0704 13.2036
Si -17.5732 -15.7788 13.0375
Si -15.0362 -13.8251 13.3077
O -17.8874 -16.1123 14.6369
O -17.03 -17.0842 12.1263
O -18.7908 -14.8313 12.3707
O -14.4703 -13.738 14.8197
O -14.0025 -14.0692 12.0952
O -15.7893 -12.4783 12.8686
O -12.6437 -18.016 6.79747
Si -13.3596 -19.4956 6.76681
Si -11.4159 -16.938 6.94462
O -14.4157 -16.6222 8.02115
Si -15.6791 -17.6735 8.03651
Si -13.6617 -15.1732 7.8714
O -16.0788 -17.9822 9.62058
O -14.8414 -18.9942 7.40171
O -16.953 -16.9516 7.21129
O -13.6777 -14.5794 9.37694
O -12.1832 -15.6025 7.40696
O -14.2422 -14.2736 6.67478
O -10.4006 -19.398 11.4339
Si -10.9283 -20.954 11.4412
Si -9.31421 -18.1827 11.6066
O -12.3147 -18.2185 12.7042
Si -13.4388 -19.4172 12.7193
Si -11.7404 -16.6899 12.5496
O -13.7905 -19.7674 14.3063
O -12.4554 -20.63 12.0808
O -14.7903 -18.8581 11.893
O -11.8092 -16.1026 14.0565
O -10.2273 -16.9442 12.0701
O -12.4198 -15.8689 11.3483
O -8.36662 -20.4201 6.23378
Si -8.48286 -22.0552 6.42435
Si -7.57943 -18.9879 6.15306
O -9.75572 -19.8135 8.46598
Si -10.8772 -21.0075 8.26508
Si -9.21927 -18.2714 8.58314
O -11.0701 -21.4474 9.85927
O -9.89098 -22.0156 7.34589
O -12.3506 -20.557 7.59173
O -8.74251 -17.994 10.1038
O -8.16069 -18.1151 7.37724
O -10.4034 -17.2822 8.14226
O -5.88471 -21.2829 10.9004
Si -5.79198 -22.9196 11.0973
Si -5.29516 -19.76 10.8048
O -7.31239 -20.8381 13.1445
Si -8.28386 -22.1553 12.9423
Si -6.98207 -19.2399 13.2507
O -8.40279 -22.6056 14.5406
O -7.19628 -23.0429 12.0159
O -9.80346 -21.8793 12.2789
O -6.51177 -18.8949 14.7589
O -5.9875 -18.9522 12.0152
O -8.29228 -18.421 12.8215
O -2.84375 -21.6805 6.61165
Si -2.79662 -23.3274 6.60145
Si -2.33951 -20.1178 6.68748
O -5.07561 -21.3585 7.95322
Si -5.69203 -22.8802 7.92358
Si -5.11563 -19.7301 7.78459
O -5.9154 -23.3661 9.49822
O -4.31569 -23.6144 7.27844
O -7.14922 -22.8378 7.08631
O -5.43897 -19.2214 9.2868
O -3.63146 -19.3656 7.28523
O -6.05413 -19.2373 6.57861
O -0.307618 -21.9286 11.2047
Si -0.000327169 -23.5414 11.2654
Si 0.0215714 -20.3348 11.3689
O -2.5238 -21.8102 12.6081
Si -2.92302 -23.4028 12.5895
Si -2.76722 -20.1962 12.4574
O -3.04761 -23.8954 14.1735
O -1.48857 -23.9897 11.923
O -4.38578 -23.5425 11.7751
O -3.05409 -19.7123 13.9749
O -1.35189 -19.6908 11.8919
O -3.76076 -19.787 11.2649