3120
 Atoms. Timestep: 98775
O 8.95372 1.60425 11.4707
Si 10.5847 1.71153 11.6272
Si 7.43051 2.24987 11.2995
O 9.20702 -0.843563 12.1198
Si 10.7673 -1.36866 12.3998
Si 7.59484 -0.862734 11.7565
O 11.0562 -1.98967 13.9254
O 11.1968 0.224121 12.0719
O 11.2036 -2.49115 11.2624
O 6.96569 -1.19205 13.2251
O 7.09064 0.599095 11.217
O 7.24513 -2.15861 10.7589
O 7.65915 4.76171 7.77502
Si 9.28709 5.24558 7.63233
Si 6.74602 4.05987 6.42643
O 8.94952 1.66882 8.7346
Si 10.4389 2.35502 8.53427
Si 7.3143 1.78415 8.3852
O 11.0188 2.18703 10.0903
O 10.2463 3.9488 8.0743
O 11.2507 1.4992 7.34816
O 7.13011 2.84201 9.77455
O 7.7997 2.66132 6.93267
O 7.46543 0.692662 6.94945
O 8.81342 2.28021 16.9536
Si 10.4299 2.67101 17.0455
Si 8.06727 1.41392 15.594
O 9.05371 -0.948729 17.7765
Si 10.628 -0.43387 17.889
Si 7.39973 -0.653906 17.6708
O 11.1469 -0.830331 19.4393
O 10.9791 1.14128 17.4467
O 11.0098 -1.42196 16.603
O 8.26103 0.647942 18.7931
O 8.21868 -0.107347 15.0104
O 6.92209 -1.73266 16.4721
O 7.63717 6.52765 12.781
Si 9.22882 6.70755 13.1062
Si 6.58675 5.47579 12.1126
O 8.3404 2.85935 14.4273
Si 9.8301 3.62243 14.0654
Si 6.4877 3.17928 13.9251
O 10.617 3.30643 15.5141
O 9.8622 5.25229 13.6428
O 10.6494 2.82155 12.8568
O 6.6369 2.08493 15.1289
O 7.17081 3.84503 12.347
O 6.46567 2.00993 12.6922
O 5.1095 7.75586 8.39542
Si 6.09505 8.93465 8.98754
Si 4.22945 6.44442 8.73629
O 7.40104 5.83155 10.4284
Si 8.47694 7.0541 10.0455
Si 6.61139 4.52747 9.31709
O 9.31777 7.17362 11.4888
O 7.57136 8.34861 9.50069
O 9.33883 6.41667 8.79417
O 5.87836 4.60851 10.8448
O 5.23603 5.15834 8.60407
O 6.28152 3.33686 8.03526
O 8.44429 3.76197 22.596
Si 10.114 4.08288 22.6271
Si 7.56068 3.12123 21.1972
O 9.48178 0.489338 23.5639
Si 11.008 1.07436 23.4524
Si 7.8816 0.858238 23.339
O 11.5841 0.770261 25.0053
O 10.9615 2.69628 23.0421
O 11.3557 0.0876512 22.1411
O 8.42315 2.35226 24.0136
O 8.05893 1.43374 21.6979
O 7.41158 -0.391931 22.1886
O 7.02166 6.13866 17.9786
Si 8.21184 7.15349 18.5072
Si 5.80949 5.02331 18.0217
O 8.40215 3.47105 19.6368
Si 9.73069 4.51782 19.4905
Si 7.6638 2.41181 18.3067
O 10.376 4.51431 21.0334
O 9.36425 6.06555 19.0043
O 10.5781 3.74707 18.2919
O 7.21555 1.89355 19.9489
O 6.37824 3.47141 18.0802
O 7.28853 0.996436 17.0859
O 4.52608 7.35604 14.5575
Si 4.94058 9.00723 14.5675
Si 2.84419 6.4495 14.2093
O 7.01551 6.59883 15.4287
Si 7.81157 8.02701 15.5166
Si 5.61743 5.84002 15.0113
O 8.38259 7.98218 17.0728
O 6.53469 9.00571 15.0767
O 8.93887 7.7691 14.3399
O 5.23626 5.22442 16.5042
O 4.07719 5.40946 14.5428
O 6.14981 4.8659 13.7302
O 0.625442 8.79398 10.2829
Si 1.23044 10.3182 10.4192
Si 0.894359 7.33302 9.56189
O 3.77044 7.91695 11.8639
Si 4.15481 9.47357 11.4925
Si 3.07775 6.50282 11.406
O 4.73464 9.69195 13.0533
O 2.78341 10.3021 11.0275
O 5.28476 9.61615 10.274
O 2.1557 6.02463 12.7755
O 2.64373 6.96317 9.65331
O 4.22294 5.95518 10.3459
O -2.50685 8.07423 109.319
Si -2.51839 9.68128 6.57761
Si -1.64099 6.6946 109.214
O 0.974126 8.0728 7.81459
Si 0.650409 9.67743 7.34944
Si 1.33789 6.47781 6.81173
O 1.07914 10.5004 8.75295
O -0.95762 10.0529 7.0452
O 1.51098 10.0353 109.016
O 0.885251 6.15624 8.37239
O -0.0633457 6.97524 109.166
O 1.54307 5.90325 108.332
O 6.34507 6.80072 24.1675
Si 7.28222 8.15145 24.0836
Si 5.11569 5.7693 23.8218
O 8.04539 5.17746 24.7531
Si 9.39154 6.0371 25.0598
Si 7.46333 3.78836 24.1014
O 9.70445 5.81143 26.7018
O 8.72874 7.48983 24.5808
O 10.2474 5.24337 23.8406
O 7.3939 3.15308 25.6516
O 5.91436 4.36586 24.0136
O 6.8503 2.57314 22.8053
O 3.44521 7.8817 19.3089
Si 3.80766 9.38677 19.8878
Si 3.35357 6.23835 19.2734
O 6.55824 6.77242 20.9459
Si 6.6952 8.41367 20.9643
Si 5.56103 5.49286 20.8683
O 7.21347 8.72464 22.5204
O 5.37274 9.2991 20.4641
O 7.7728 8.19502 19.7144
O 4.74985 5.75051 22.2476
O 4.8647 5.5353 19.352
O 6.20248 4.01703 20.9901
O -0.0991044 9.18284 15.5829
Si -0.0734416 10.7787 15.9979
Si 0.406197 8.27655 14.3274
O 2.53702 8.21326 16.8161
Si 2.86696 9.83082 16.8715
Si 1.68897 6.8027 16.8736
O 3.51197 10.0934 18.3922
O 1.52323 10.7624 16.5179
O 4.02131 9.85813 15.6685
O 2.46321 5.94569 17.9802
O 1.97439 7.85174 14.3905
O 1.9465 6.08896 15.4877
O -2.74468 7.79354 11.8994
Si -3.46561 9.27242 12.1277
Si -2.7254 6.12399 11.9542
O 0.00601406 9.28383 13.1245
Si -0.712644 10.7237 12.8549
Si 0.366253 5.88615 12.4141
O -0.404557 11.2955 14.4178
O -2.30235 10.4054 12.5018
O 0.210368 11.0584 11.5062
O -0.0552592 6.85049 13.6814
O -1.16022 5.51603 11.9136
O 1.28365 6.53439 11.0527
O -5.91977 5.83576 8.61353
Si -6.87993 7.16029 8.5159
Si -5.72318 4.25099 8.27629
O -3.27789 7.82188 9.12706
Si -4.35076 9.05658 9.09641
Si -3.04802 6.24213 8.81323
O -4.14077 9.62276 10.6459
O -5.89352 8.46783 8.84787
O -3.63369 9.85652 7.81143
O -2.88475 5.64456 10.3371
O -4.1738 6.06147 7.61154
O -1.98303 5.99867 7.59419
O 2.06361 7.90269 25.1972
Si 2.45718 9.48697 25.3134
Si 2.35647 6.39302 24.5655
O 5.19827 7.44737 26.8378
Si 5.44075 9.04107 26.4826
Si 4.36535 6.06556 26.5767
O 5.94423 9.52321 28.0143
O 4.0335 9.67814 25.8433
O 6.59231 9.06508 25.2859
O 2.94956 6.06548 27.3946
O 3.93948 6.02797 24.9612
O 5.27271 4.72188 26.7492
O -1.67664 8.79085 21.3436
Si -1.4985 10.4036 21.5389
Si -0.970916 7.32597 21.1829
O 2.81066 7.09531 23.0251
Si 1.55723 9.79911 22.1704
Si 1.69083 6.70609 21.7642
O 2.10299 10.0338 23.7537
O 0.117207 10.5972 21.8974
O 2.77456 10.0212 21.0401
O 1.26907 5.84792 23.2508
O 1.15706 8.25628 21.7361
O 2.37674 5.94967 20.5276
O -4.41086 7.53342 17.6206
Si -4.89466 9.10775 17.6874
Si -3.40902 6.3138 18.0422
O -1.10037 9.34878 18.0567
Si -2.12739 10.5845 18.4096
Si -0.724823 7.80511 18.299
O -1.91354 10.9819 20.0208
O -3.69013 10.2176 17.9824
O -1.17734 11.2108 17.1636
O -0.184012 7.5468 19.7984
O -2.06579 6.96323 18.6305
O 0.163423 7.11075 17.1826
O -6.57095 5.022 13.7005
Si -7.60491 6.28951 13.7682
Si -5.11853 4.44548 13.2426
O -4.11755 7.2616 15.0955
Si -5.27362 8.34094 14.6162
Si -3.25787 5.85436 15.053
O -5.42728 9.13593 16.0911
O -6.68941 7.64593 14.0743
O -4.58008 9.19447 13.3643
O -2.97311 5.62511 16.6356
O -4.23505 5.44733 12.2606
O -2.43551 5.9752 13.6244
O -8.9722 1.91578 9.40753
Si -10.1575 3.00828 9.71381
Si -7.49067 1.76542 8.70892
O -7.14869 4.21446 11.108
Si -8.29279 5.38274 10.7939
Si -6.10289 2.91963 10.9142
O -8.36476 6.13538 12.2894
O -9.59346 4.47988 10.2575
O -7.90801 6.59183 9.70524
O -5.36312 3.13952 12.3305
O -7.03891 3.29754 8.27572
O -5.27841 3.48639 9.63685
O -9.51354 -1.5732 108.868
Si -10.9213 -0.792837 109.217
Si -7.9362 -1.74536 109.263
O -8.24913 1.72409 6.98153
Si -9.82109 2.21762 6.62126
Si -6.81087 0.979893 108.996
O -10.4145 2.89261 8.04654
O -10.7384 0.847993 109.43
O -9.79303 3.30316 108.398
O -6.46666 1.04985 7.5806
O -7.12177 -0.533096 108.603
O -5.98146 1.76476 107.871
O -5.90006 6.68583 23.6511
Si -6.13475 8.32511 23.4756
Si -4.86513 5.41088 23.5898
O -2.39037 8.34667 24.1495
Si -3.27408 9.72929 24.1048
Si -2.13903 6.76594 23.8038
O -2.97919 10.2328 25.676
O -4.88512 9.36349 23.8611
O -2.53372 10.5701 22.8532
O -1.95252 6.1308 25.2836
O -3.39902 6.18013 22.9039
O -0.951176 6.82952 22.7181
O -6.83524 4.62288 19.2401
Si -8.17925 5.56713 19.3459
Si -5.23017 4.24529 19.0385
O -4.79925 7.3699 20.5701
Si -6.30705 8.01346 20.3102
Si -3.81999 6.06706 20.8951
O -6.5856 8.5362 21.8794
O -7.5704 7.04144 19.8197
O -5.92228 8.99136 19.004
O -4.81616 5.17578 21.9188
O -4.13051 5.46775 19.3112
O -2.1917 6.31833 20.7418
O -8.76502 1.96099 14.5181
Si -10.2488 2.24563 15.2163
Si -7.40566 1.04815 14.3932
O -7.3279 4.07413 16.2061
Si -8.77949 4.84519 16.288
Si -6.27514 2.86731 16.5569
O -8.86777 5.49141 17.8236
O -9.95798 3.77381 15.8149
O -8.56749 5.94218 15.0661
O -5.19592 3.61602 17.5365
O -6.30115 1.8854 15.255
O -4.17626 4.63843 14.5257
O -9.16709 -1.94251 12.1167
Si -10.7992 -1.97071 11.9584
Si -7.70085 -2.62294 11.812
O -9.00806 0.863553 12.0384
Si -10.6285 1.16401 12.2279
Si -7.55464 0.382143 11.3631
O -10.9122 1.89548 13.7071
O -11.23 -0.384133 12.189
O -10.9282 2.15093 10.9189
O -6.95186 0.60806 12.8852
O -7.4796 -1.20472 10.7849
O -6.98461 1.59856 10.3493
O -7.77378 -4.97247 8.25656
Si -9.39645 -5.44216 8.14486
Si -6.64497 -4.35828 6.91272
O -9.1291 -1.77452 9.10268
Si -10.5711 -2.52046 8.8449
Si -7.44526 -1.79869 9.10834
O -11.1776 -2.40348 10.3969
O -10.3591 -4.12991 8.49445
O -11.2612 -1.65471 7.57631
O -7.21905 -3.10765 10.2279
O -7.16864 -2.78437 7.52939
O -7.92144 -0.945152 7.7183
O -7.74611 3.17274 24.3349
Si -8.91727 4.20532 24.8493
Si -6.20562 2.68081 24.1252
O -5.79813 6.63442 26.1939
Si -7.41462 6.90153 25.9957
Si -4.51722 5.70305 26.6153
O -7.57886 7.29334 27.6169
O -8.42957 5.66381 25.5095
O -7.18034 8.02208 24.768
O -4.98489 4.3959 27.4679
O -5.19041 3.92069 24.1623
O -4.08269 5.47931 25.0625
O -9.5613 -0.00756541 21.2409
Si -10.8767 0.950727 21.1155
Si -7.92032 -0.212551 21.3313
O -7.75765 3.40382 21.4719
Si -9.35644 3.76952 21.7149
Si -6.51858 2.38568 21.099
O -9.52071 4.32345 23.2851
O -10.4611 2.5382 21.4504
O -9.20763 4.92204 20.499
O -6.0636 2.04952 22.6313
O -7.22907 1.08161 20.3608
O -5.3701 3.09876 20.1958
O -8.59763 -2.16706 17.5146
Si -10.2112 -2.61619 17.3701
Si -7.55927 -1.31987 16.3447
O -9.09262 1.09251 18.0774
Si -10.632 0.517495 17.923
Si -7.55361 0.800569 18.5854
O -11.2509 0.816592 19.4705
O -10.8606 -1.09395 17.564
O -10.8928 1.36005 16.4865
O -8.16133 -0.522763 19.6204
O -7.96027 -0.213079 15.2562
O -6.56299 1.847 17.8157
O -7.75633 -6.67835 13.3705
Si -9.34197 -6.92944 13.7227
Si -6.73548 -5.58365 12.7003
O -8.5219 -3.42951 14.3075
Si -10.1035 -3.89006 14.4158
Si -6.86335 -3.4431 14.4998
O -10.5691 -3.38158 15.9355
O -10.143 -5.5414 14.1737
O -10.9473 -3.06427 13.2234
O -6.66102 -2.47771 15.7335
O -7.7261 -4.25483 12.2501
O -6.74633 -2.64217 13.1125
O -5.15232 -8.11677 9.62951
Si -6.24437 -9.24881 10.0804
Si -4.34645 -6.79929 10.0894
O -7.49591 -5.97375 10.9923
Si -8.60791 -7.18063 10.6606
Si -6.64335 -4.68049 9.84818
O -9.45747 -7.31448 12.0916
O -7.71992 -8.55945 10.3999
O -9.42879 -6.59867 9.34172
O -5.97406 -4.75542 11.4257
O -5.15613 -5.46726 9.64417
O -5.9721 -4.12225 8.41075
O -8.61263 -3.89025 23.183
Si -10.2891 -4.1497 23.1446
Si -7.67726 -3.23281 21.8324
O -9.75986 -0.605704 24.1509
Si -11.2558 -1.07212 23.6582
Si -8.19193 -1.08954 24.1227
O -11.6681 -0.933437 25.285
O -11.1639 -2.72318 23.3492
O -11.5777 0.0127543 22.3793
O -8.60472 -2.63087 24.7362
O -8.39002 -1.67616 22.404
O -7.61379 0.0662101 22.9945
O -7.74812 -5.90032 18.5752
Si -8.53082 -7.22904 19.1982
Si -6.37739 -5.02439 18.4715
O -8.48493 -3.41555 20.2455
Si -9.83902 -4.41495 19.9804
Si -7.69994 -2.24201 19.05
O -10.5161 -4.48151 21.5148
O -9.62396 -6.01719 19.5806
O -10.5162 -3.59034 18.6942
O -7.28186 -1.90434 20.7596
O -6.57174 -3.44424 18.8214
O -7.18184 -0.811737 17.9068
O -4.51697 -7.33172 15.4899
Si -4.88488 -8.98627 15.6071
Si -2.78816 -6.30974 15.4527
O -7.09806 -6.67292 16.0708
Si -7.87965 -8.10116 16.2346
Si -5.7404 -5.89389 15.5376
O -8.52396 -8.08124 17.7644
O -6.51719 -9.03092 15.9788
O -8.97365 -7.94598 14.9918
O -5.71591 -5.10848 16.9933
O -4.1531 -5.36826 15.4363
O -6.34896 -4.99551 14.2612
O -0.678959 -8.96102 11.4108
Si -1.24897 -10.4961 11.5583
Si -0.985129 -7.50342 10.7067
O -3.66166 -8.20644 13.0837
Si -4.18881 -9.69486 12.5662
Si -3.05492 -6.7296 12.6868
O -4.66714 -9.80968 14.172
O -2.82906 -10.527 12.0804
O -5.43192 -9.83001 11.4392
O -2.0792 -6.02987 13.944
O -2.71085 -7.17503 10.9227
O -4.34192 -6.32828 11.7048
O 2.2889 -7.88429 7.42623
Si 2.32189 -9.50438 7.5799
Si 1.39478 -6.55537 7.64589
O -1.20402 -8.2989 8.96898
Si -0.819644 -9.89096 8.47391
Si -1.66188 -6.71825 7.95824
O -1.05278 -10.7198 9.91131
O 0.793815 -10.0581 8.00421
O -1.81431 -10.4842 7.25585
O -1.11344 -6.37189 9.49019
O -0.0756734 -7.13188 7.80157
O -1.63549 -6.71453 109.373
O -6.20252 -7.55433 25.0489
Si -7.54935 -8.49396 25.0011
Si -5.41804 -6.12389 25.2718
O -8.28077 -5.28748 25.4865
Si -9.62447 -6.17526 25.6112
Si -7.60319 -4.04157 24.6709
O -9.91201 -5.98885 27.2523
O -8.96194 -7.66634 25.2907
O -10.4393 -5.3352 24.3639
O -7.35914 -3.37551 26.2406
O -6.35427 -5.1109 24.1767
O -7.04844 -2.6829 23.4874
O -3.84782 -8.03657 20.3267
Si -4.15185 -9.51833 20.9489
Si -4.2271 -6.46131 20.2052
O -6.72031 -6.78014 22.0146
Si -7.02443 -8.39196 21.8223
Si -5.79213 -5.50739 22.4964
O -7.51952 -8.88722 23.3575
O -5.77156 -9.35806 21.2974
O -8.07056 -8.13891 20.5264
O -4.60018 -5.96828 23.7514
O -5.61895 -5.95397 19.5714
O -6.3509 -4.1816 21.7727
O 0.127992 -8.99896 16.6669
Si 0.0737031 -10.5737 17.1172
Si -0.35974 -8.12844 15.3961
O -2.09985 -8.25177 18.2137
Si -2.85223 -9.72103 18.0297
Si -1.94552 -6.61015 18.3079
O -3.57206 -10.1317 19.4882
O -1.5368 -10.6513 17.5671
O -3.99206 -9.70157 16.817
O -3.05189 -5.96183 19.2601
O -1.91302 -7.70623 15.5346
O -2.09305 -5.94098 16.8626
O 2.72507 -7.3465 12.79
Si 3.36007 -8.87801 12.9512
Si 2.8385 -5.66763 12.7426
O -0.0479259 -9.18817 14.2178
Si 0.766359 -10.5729 13.9519
Si -0.285582 -5.83446 13.4245
O 0.555208 -11.0976 15.5636
O 2.26635 -10.0744 13.4019
O -0.195114 -11.093 12.6964
O 0.16869 -6.76223 14.6971
O 1.17725 -5.29742 12.8209
O -1.28417 -6.65542 12.2214
O 6.25658 -6.42273 8.62243
Si 7.20411 -7.69514 8.99972
Si 6.17886 -4.83852 8.73682
O 4.28469 -7.12411 9.7194
Si 4.39851 -8.77273 9.89929
Si 3.5031 -5.68009 9.59712
O 4.05482 -9.21523 11.4691
O 6.02652 -8.74372 9.52233
O 3.47439 -9.60268 8.78497
O 3.23766 -5.17123 11.1655
O 3.90466 -4.97107 8.08826
O 2.02948 -5.8658 8.94317
O -2.96243 -8.58791 26.6448
Si -2.95606 -10.2052 26.6728
Si -2.63798 -7.23521 25.7775
O -5.45175 -8.12569 28.1729
Si -5.91707 -9.60989 27.5751
Si -4.68699 -6.70451 27.923
O -6.31938 -9.95908 29.1731
O -4.54507 -10.4185 27.1047
O -7.03328 -9.44243 26.3168
O -3.26696 -6.36744 28.6383
O -4.16209 -6.72914 26.2838
O -5.66807 -5.59576 26.9494
O 0.742488 -7.98264 22.668
Si 0.813201 -9.62255 22.7316
Si 0.0893208 -6.46173 22.7954
O -2.59555 -7.99442 24.0365
Si -2.30558 -9.60761 23.6012
Si -3.02088 -6.44449 22.9893
O -2.61841 -10.4136 25.0439
O -0.753491 -10.0226 23.1322
O -3.30304 -9.96439 22.3096
O -2.79157 -6.08652 24.5966
O -1.48522 -6.15195 22.487
O -4.26793 -6.05126 21.7843
O 4.19372 -7.03717 18.3995
Si 4.59817 -8.62594 18.5293
Si 3.08536 -5.84684 18.5216
O 0.753165 -8.54955 19.7992
Si 1.75788 -9.84708 19.6614
Si 0.641109 -6.93277 19.8505
O 1.42053 -10.2087 21.2772
O 3.33518 -9.54465 19.1591
O 1.0434 -10.7224 18.4467
O 0.769563 -6.27186 21.3208
O 1.68295 -6.53307 18.7201
O -0.608569 -6.26631 19.1028
O 6.93752 -5.137 13.8515
Si 7.79177 -6.47022 14.2746
Si 5.6063 -4.17971 13.9692
O 4.21763 -6.80024 15.7587
Si 5.21877 -8.06873 15.4236
Si 3.68107 -5.24401 15.7245
O 5.12448 -8.82218 16.935
O 6.72162 -7.63427 14.8227
O 4.47384 -8.879 14.1832
O 3.04867 -5.03203 17.1615
O 4.43363 -5.19001 13.24
O 2.7801 -5.16431 14.3638
O 9.34513 -2.4546 9.90317
Si 10.5853 -3.48895 10.0843
Si 7.88979 -2.36756 9.20795
O 7.51364 -4.66488 11.5975
Si 8.6448 -5.83658 11.2381
Si 6.39258 -3.4738 11.2967
O 8.59694 -6.52873 12.7873
O 9.97031 -4.95224 10.6589
O 8.23543 -7.04765 10.1468
O 5.61529 -3.28748 12.6484
O 7.44135 -3.83845 8.62945
O 5.63023 -4.17198 10.0776
O 9.72317 1.31477 108.522
Si 11.0657 0.522455 109.046
Si 8.13625 1.57883 108.669
O 8.59948 -1.89085 7.58516
Si 10.1151 -2.3815 7.05323
Si 7.17995 -0.896187 6.85969
O 10.7975 -3.12345 8.42466
O 10.9579 -1.07669 6.44639
O 9.89577 -3.54012 108.936
O 6.84204 -1.38371 8.38887
O 7.50458 0.831505 107.372
O 6.30088 -1.49754 108.708
O 5.3239 -6.25001 23.911
Si 5.67879 -7.85856 24.0283
Si 4.25389 -5.00548 24.0527
O 2.00951 -7.75116 25.3441
Si 2.86637 -9.13225 25.0849
Si 1.84748 -6.11407 25.3253
O 2.79591 -9.81262 26.6128
O 4.39076 -8.83711 24.4606
O 1.90362 -9.88375 23.9578
O 1.44464 -5.76075 26.8592
O 2.66031 -5.49562 23.9976
O 0.655563 -5.85165 24.1972
O 7.78299 -3.97258 19.644
Si 8.57378 -5.40186 19.8966
Si 6.35376 -3.18812 19.7729
O 5.02186 -6.68954 21.1219
Si 6.36487 -7.6103 20.9263
Si 4.43684 -5.17983 21.0648
O 6.33217 -8.16273 22.5131
O 7.7111 -6.74841 20.4142
O 5.78719 -8.56203 19.6914
O 3.93607 -4.69347 22.4917
O 5.76012 -4.40821 20.6352
O 3.41727 -5.03942 19.8522
O 8.90504 -2.3328 14.7693
Si 10.4149 -2.42275 15.4219
Si 7.44897 -1.57652 14.747
O 7.38345 -4.33734 17.0078
Si 8.92291 -4.92901 16.7743
Si 6.07672 -3.32543 16.7309
O 9.17903 -5.49003 18.3339
O 10.0821 -3.87866 16.1877
O 8.72336 -6.04998 15.5735
O 5.69849 -2.98857 18.2993
O 6.40397 -2.97 14.9922
O 5.00202 -4.26643 15.5781
O 7.54991 -3.5248 25.0954
Si 8.93401 -4.34938 25.4143
Si 6.06829 -2.86247 25.4009
O 5.80726 -6.14815 27.149
Si 7.21706 -6.84098 26.5776
Si 4.51488 -5.09972 27.1245
O 7.61782 -7.65369 27.9837
O 8.42262 -5.80988 26.0465
O 6.74121 -7.78027 25.2991
O 5.27559 -3.69743 26.6455
O 4.82867 -3.56588 24.5531
O 3.62197 -5.41118 25.7454
O 9.08604 -0.7909 20.8317
Si 10.7008 -0.9996 21.0556
Si 7.73735 0.143005 20.5136
O 8.05694 -3.07524 22.5431
Si 9.57765 -3.69461 22.3513
Si 6.87925 -1.92538 22.5168
O 9.69019 -4.30735 23.9129
O 10.6053 -2.49993 21.7981
O 9.49364 -4.85629 21.1691
O 6.02025 -2.09807 23.8957
O 6.964 -0.782844 19.303
O 6.23195 -2.15657 21.0287
O 8.95372 1.60425 32.0807
Si 10.5847 1.71153 32.2372
Si 7.43051 2.24987 31.9095
O 9.20702 -0.843562 32.7299
Si 10.7673 -1.36865 33.0098
Si 7.59484 -0.862734 32.3665
O 11.0562 -1.98966 34.5354
O 11.1968 0.224123 32.6819
O 11.2036 -2.49115 31.8724
O 6.96569 -1.19205 33.8351
O 7.09064 0.599095 31.827
O 7.24513 -2.15861 31.3689
O 7.65915 4.76171 28.385
Si 9.28708 5.24557 28.2423
Si 6.74601 4.05987 27.0365
O 8.94951 1.66882 29.3446
Si 10.4389 2.35501 29.1443
Si 7.3143 1.78415 28.9952
O 11.0188 2.18703 30.7003
O 10.2463 3.9488 28.6843
O 11.2506 1.4992 27.9582
O 7.1301 2.84201 30.3846
O 7.79969 2.66132 27.5427
O 7.46543 0.69266 27.5595
O 8.81342 2.28021 37.5636
Si 10.4299 2.67101 37.6556
Si 8.06727 1.41392 36.204
O 9.05371 -0.948724 38.3866
Si 10.628 -0.433866 38.499
Si 7.39974 -0.653901 38.2808
O 11.1469 -0.830326 40.0493
O 10.9791 1.14128 38.0568
O 11.0098 -1.42195 37.2131
O 8.26104 0.647948 39.4032
O 8.21868 -0.107344 35.6204
O 6.92209 -1.73266 37.0821
O 7.63717 6.52765 33.391
Si 9.22882 6.70756 33.7163
Si 6.58675 5.47579 32.7226
O 8.3404 2.85935 35.0373
Si 9.8301 3.62244 34.6754
Si 6.4877 3.17929 34.5351
O 10.617 3.30644 36.1241
O 9.8622 5.25229 34.2529
O 10.6494 2.82156 33.4669
O 6.63691 2.08494 35.7389
O 7.17081 3.84503 32.957
O 6.46567 2.00994 33.3022
O 5.1095 7.75586 29.0054
Si 6.09505 8.93466 29.5976
Si 4.22945 6.44443 29.3463
O 7.40104 5.83156 31.0385
Si 8.47695 7.0541 30.6555
Si 6.61139 4.52747 29.9271
O 9.31777 7.17362 32.0988
O 7.57136 8.34861 30.1107
O 9.33883 6.41667 29.4042
O 5.87836 4.60851 31.4548
O 5.23603 5.15834 29.2141
O 6.28152 3.33686 28.6453
O 8.4443 3.76197 43.206
Si 10.114 4.08289 43.2372
Si 7.56068 3.12124 41.8072
O 9.48179 0.489344 44.174
Si 11.008 1.07436 44.0624
Si 7.88161 0.858245 43.949
O 11.5841 0.770265 45.6153
O 10.9615 2.69629 43.6522
O 11.3557 0.0876563 42.7512
O 8.42315 2.35227 44.6236
O 8.05894 1.43375 42.3079
O 7.41159 -0.391923 42.7986
O 7.02167 6.13867 38.5886
Si 8.21185 7.1535 39.1173
Si 5.80949 5.02332 38.6318
O 8.40216 3.47106 40.2468
Si 9.7307 4.51783 40.1006
Si 7.66381 2.41182 38.9168
O 10.376 4.51431 41.6434
O 9.36425 6.06556 39.6143
O 10.5781 3.74707 38.9019
O 7.21555 1.89356 40.5589
O 6.37825 3.47142 38.6902
O 7.28854 0.996441 37.6959
O 4.52608 7.35605 35.1675
Si 4.94058 9.00724 35.1775
Si 2.8442 6.44951 34.8193
O 7.01552 6.59884 36.0388
Si 7.81158 8.02701 36.1266
Si 5.61743 5.84003 35.6213
O 8.3826 7.98219 37.6828
O 6.5347 9.00572 35.6867
O 8.93887 7.7691 34.9499
O 5.23626 5.22442 37.1142
O 4.07719 5.40947 35.1528
O 6.14982 4.86591 34.3402
O 0.625447 8.794 30.8929
Si 1.23044 10.3182 31.0293
Si 0.894362 7.33304 30.1719
O 3.77044 7.91696 32.4739
Si 4.15482 9.47358 32.1025
Si 3.07775 6.50284 32.0161
O 4.73465 9.69196 33.6633
O 2.78342 10.3021 31.6375
O 5.28476 9.61616 30.884
O 2.15571 6.02464 33.3855
O 2.64373 6.96318 30.2633
O 4.22294 5.95519 30.9559
O -2.50685 8.07425 26.8787
Si -2.51839 9.6813 27.1876
Si -1.64099 6.69462 26.7737
O 0.974128 8.07282 28.4246
Si 0.65041 9.67745 27.9595
Si 1.33789 6.47783 27.4218
O 1.07915 10.5004 29.363
O -0.95762 10.0529 27.6552
O 1.51098 10.0353 26.5755
O 0.885252 6.15626 28.9824
O -0.0633423 6.97526 26.7263
O 1.54306 5.90327 25.8921
O 6.34507 6.80073 44.7776
Si 7.28223 8.15146 44.6936
Si 5.11569 5.7693 44.4318
O 8.04539 5.17747 45.3632
Si 9.39154 6.0371 45.6698
Si 7.46333 3.78836 44.7114
O 9.70446 5.81143 47.3118
O 8.72874 7.48984 45.1908
O 10.2474 5.24337 44.4506
O 7.39391 3.15308 46.2616
O 5.91437 4.36587 44.6236
O 6.85031 2.57315 43.4153
O 3.44522 7.88171 39.9189
Si 3.80766 9.38677 40.4978
Si 3.35357 6.23836 39.8834
O 6.55825 6.77243 41.5559
Si 6.6952 8.41368 41.5743
Si 5.56104 5.49287 41.4783
O 7.21347 8.72465 43.1304
O 5.37275 9.29911 41.0742
O 7.77281 8.19503 40.3244
O 4.74985 5.75051 42.8576
O 4.8647 5.53531 39.962
O 6.20248 4.01703 41.6001
O -0.0990966 9.18285 36.193
Si -0.0734346 10.7787 36.608
Si 0.406205 8.27656 34.9375
O 2.53703 8.21326 37.4261
Si 2.86697 9.83083 37.4815
Si 1.68898 6.8027 37.4836
O 3.51198 10.0934 39.0023
O 1.52324 10.7624 37.1279
O 4.02132 9.85814 36.2785
O 2.46322 5.94569 38.5902
O 1.9744 7.85175 35.0005
O 1.94651 6.08897 36.0977
O -2.74467 7.79355 32.5094
Si -3.4656 9.27244 32.7377
Si -2.72539 6.124 32.5643
O 0.00601937 9.28384 33.7345
Si -0.71264 10.7237 33.4649
Si 0.366259 5.88616 33.0241
O -0.404552 11.2955 35.0279
O -2.30234 10.4054 33.1118
O 0.210373 11.0584 32.1163
O -0.0552527 6.8505 34.2914
O -1.16021 5.51604 32.5236
O 1.28366 6.5344 31.6628
O -5.9198 5.83577 29.2235
Si -6.87994 7.16031 29.1259
Si -5.72322 4.251 28.8863
O -3.27789 7.82189 29.7371
Si -4.35077 9.05659 29.7064
Si -3.04801 6.24214 29.4232
O -4.14076 9.62277 31.2559
O -5.89352 8.46785 29.4579
O -3.6337 9.85653 28.4214
O -2.88474 5.64457 30.9471
O -4.1738 6.06146 28.2216
O -1.98303 5.99869 28.2042
O 2.06361 7.9027 45.8072
Si 2.45719 9.48697 45.9234
Si 2.35647 6.39302 45.1755
O 5.19827 7.44737 47.4478
Si 5.44075 9.04107 47.0926
Si 4.36535 6.06556 47.1867
O 5.94423 9.52321 48.6244
O 4.0335 9.67814 46.4533
O 6.59232 9.06509 45.8959
O 2.94957 6.06548 48.0046
O 3.93949 6.02798 45.5712
O 5.27271 4.72188 47.3592
O -1.67664 8.79086 41.9536
Si -1.4985 10.4036 42.149
Si -0.97091 7.32597 41.7929
O 2.81067 7.09531 43.6351
Si 1.55724 9.79912 42.7804
Si 1.69083 6.7061 42.3742
O 2.103 10.0338 44.3637
O 0.117214 10.5972 42.5074
O 2.77457 10.0212 41.6501
O 1.26908 5.84793 43.8608
O 1.15706 8.25628 42.3461
O 2.37674 5.94967 41.1376
O -4.41086 7.53343 38.2306
Si -4.89466 9.10775 38.2974
Si -3.40902 6.31381 38.6522
O -1.10037 9.34878 38.6667
Si -2.12738 10.5846 39.0197
Si -0.724819 7.80511 38.909
O -1.91353 10.9819 40.6308
O -3.69013 10.2176 38.5924
O -1.17734 11.2108 37.7736
O -0.184007 7.54681 40.4085
O -2.06578 6.96323 39.2405
O 0.163431 7.11076 37.7927
O -6.57095 5.02202 34.3105
Si -7.60492 6.28952 34.3782
Si -5.11854 4.4455 33.8526
O -4.11756 7.26161 35.7055
Si -5.27362 8.34095 35.2262
Si -3.25788 5.85437 35.663
O -5.42728 9.13594 36.7012
O -6.68941 7.64594 34.6843
O -4.58008 9.19448 33.9743
O -2.97311 5.62512 37.2456
O -4.23505 5.44735 32.8706
O -2.4355 5.97521 34.2344
O -8.97223 1.91579 30.0175
Si -10.1575 3.00829 30.3238
Si -7.49069 1.76543 29.3189
O -7.14872 4.21446 31.718
Si -8.2928 5.38276 31.4039
Si -6.10291 2.91964 31.5242
O -8.36477 6.1354 32.8994
O -9.59348 4.4799 30.8675
O -7.90803 6.59185 30.3153
O -5.36313 3.13954 32.9405
O -7.03894 3.29755 28.8857
O -5.27844 3.48641 30.2469
O -9.51352 -1.57318 26.4276
Si -10.9213 -0.792828 26.7769
Si -7.93618 -1.74535 26.8234
O -8.24914 1.7241 27.5915
Si -9.8211 2.21764 27.2313
Si -6.81088 0.979913 26.5561
O -10.4145 2.89263 28.6566
O -10.7384 0.848005 26.9901
O -9.79303 3.30318 25.9577
O -6.46667 1.04986 28.1906
O -7.12177 -0.533079 26.1625
O -5.98146 1.76479 25.4313
O -5.90005 6.68583 44.2612
Si -6.13474 8.32511 44.0856
Si -4.86512 5.41088 44.1998
O -2.39036 8.34668 44.7596
Si -3.27407 9.7293 44.7148
Si -2.13903 6.76594 44.4139
O -2.97918 10.2328 46.2861
O -4.88511 9.3635 44.4712
O -2.53372 10.5701 43.4633
O -1.95252 6.1308 45.8936
O -3.39902 6.18013 43.5139
O -0.95117 6.82953 43.3281
O -6.83524 4.62289 39.8501
Si -8.17925 5.56714 39.9559
Si -5.23016 4.2453 39.6485
O -4.79925 7.36991 41.1801
Si -6.30704 8.01347 40.9203
Si -3.81999 6.06707 41.5052
O -6.5856 8.53621 42.4894
O -7.57039 7.04144 40.4297
O -5.92228 8.99137 39.614
O -4.81615 5.17579 42.5288
O -4.1305 5.46776 39.9212
O -2.19169 6.31833 41.3518
O -8.76503 1.96101 35.1281
Si -10.2488 2.24565 35.8264
Si -7.40567 1.04816 35.0032
O -7.3279 4.07414 36.8161
Si -8.77949 4.8452 36.8981
Si -6.27514 2.86732 37.1669
O -8.86777 5.49142 38.4336
O -9.95799 3.77382 36.4249
O -8.56749 5.94219 35.6761
O -5.19592 3.61603 38.1466
O -6.30115 1.88541 35.865
O -4.17626 4.63844 35.1357
O -9.16708 -1.9425 32.7267
Si -10.7992 -1.9707 32.5684
Si -7.70085 -2.62293 32.422
O -9.00806 0.863559 32.6484
Si -10.6285 1.16402 32.8379
Si -7.55465 0.382153 31.9731
O -10.9122 1.8955 34.3171
O -11.23 -0.384124 32.799
O -10.9282 2.15094 31.5289
O -6.95186 0.608073 33.4952
O -7.4796 -1.20471 31.3949
O -6.98462 1.59857 30.9593
O -7.77377 -4.97246 28.8666
Si -9.39644 -5.44215 28.7549
Si -6.64496 -4.35826 27.5227
O -9.12909 -1.77451 29.7127
Si -10.5711 -2.52045 29.4549
Si -7.44525 -1.79868 29.7184
O -11.1776 -2.40347 31.0069
O -10.3591 -4.12989 29.1045
O -11.2612 -1.6547 28.1863
O -7.21904 -3.10764 30.8379
O -7.16863 -2.78435 28.1394
O -7.92143 -0.945141 28.3283
O -7.7461 3.17273 44.9449
Si -8.91726 4.20532 45.4593
Si -6.20561 2.68081 44.7352
O -5.79811 6.6344 46.8039
Si -7.4146 6.90152 46.6057
Si -4.5172 5.70305 47.2253
O -7.57884 7.29333 48.227
O -8.42956 5.66381 46.1195
O -7.18032 8.02208 45.378
O -4.98485 4.3959 48.078
O -5.1904 3.9207 44.7723
O -4.08267 5.47931 45.6725
O -9.5613 -0.00755491 41.8509
Si -10.8767 0.950738 41.7255
Si -7.92032 -0.21254 41.9413
O -7.75764 3.40383 42.082
Si -9.35643 3.76953 42.3249
Si -6.51857 2.38569 41.709
O -9.5207 4.32345 43.8951
O -10.4611 2.53821 42.0604
O -9.20763 4.92205 41.109
O -6.06359 2.04952 43.2413
O -7.22907 1.08162 40.9708
O -5.37009 3.09877 40.8058
O -8.59764 -2.16705 38.1246
Si -10.2112 -2.61618 37.9801
Si -7.55927 -1.31986 36.9547
O -9.09263 1.09252 38.6874
Si -10.632 0.517506 38.533
Si -7.55362 0.80058 39.1954
O -11.2509 0.816603 40.0805
O -10.8606 -1.09394 38.174
O -10.8928 1.36006 37.0966
O -8.16133 -0.522753 40.2304
O -7.96027 -0.213069 35.8662
O -6.563 1.84701 38.4257
O -7.75632 -6.67834 33.9805
Si -9.34196 -6.92942 34.3327
Si -6.73547 -5.58364 33.3103
O -8.5219 -3.4295 34.9175
Si -10.1035 -3.89005 35.0259
Si -6.86335 -3.44309 35.1099
O -10.5691 -3.38157 36.5455
O -10.143 -5.54139 34.7837
O -10.9473 -3.06426 33.8334
O -6.66102 -2.4777 36.3435
O -7.7261 -4.25482 32.8602
O -6.74633 -2.64215 33.7225
O -5.15231 -8.11675 30.2395
Si -6.24436 -9.2488 30.6904
Si -4.34644 -6.79927 30.6994
O -7.4959 -5.97374 31.6023
Si -8.6079 -7.18062 31.2707
Si -6.64334 -4.68047 30.4582
O -9.45746 -7.31447 32.7016
O -7.7199 -8.55944 31.0099
O -9.42878 -6.59866 29.9517
O -5.97405 -4.75541 32.0357
O -5.15612 -5.46724 30.2542
O -5.97208 -4.12223 29.0208
O -8.61263 -3.89024 43.793
Si -10.2891 -4.14968 43.7546
Si -7.67726 -3.2328 42.4424
O -9.75986 -0.605692 44.7609
Si -11.2558 -1.07211 44.2682
Si -8.19193 -1.08953 44.7327
O -11.6681 -0.933424 45.8951
O -11.1639 -2.72317 43.9592
O -11.5777 0.012767 42.9893
O -8.60472 -2.63085 45.3462
O -8.39001 -1.67615 43.014
O -7.61379 0.0662206 43.6045
O -7.74812 -5.9003 39.1852
Si -8.53082 -7.22903 39.8082
Si -6.37739 -5.02437 39.0815
O -8.48493 -3.41554 40.8555
Si -9.83902 -4.41494 40.5904
Si -7.69994 -2.242 39.66
O -10.5161 -4.4815 42.1248
O -9.62396 -6.01717 40.1906
O -10.5162 -3.59033 39.3042
O -7.28186 -1.90433 41.3696
O -6.57174 -3.44423 39.4314
O -7.18184 -0.811725 38.5169
O -4.51696 -7.33171 36.0999
Si -4.88487 -8.98625 36.2172
Si -2.78815 -6.30973 36.0627
O -7.09805 -6.6729 36.6809
Si -7.87965 -8.10115 36.8446
Si -5.74039 -5.89387 36.1476
O -8.52395 -8.08122 38.3744
O -6.51719 -9.03091 36.5888
O -8.97364 -7.94597 35.6019
O -5.7159 -5.10847 37.6034
O -4.15309 -5.36825 36.0463
O -6.34896 -4.99549 34.8712
O -0.678947 -8.96101 32.0208
Si -1.24896 -10.496 32.1683
Si -0.985113 -7.50342 31.3168
O -3.66165 -8.20643 33.6937
Si -4.1888 -9.69485 33.1763
Si -3.05491 -6.72959 33.2968
O -4.66713 -9.80967 34.7821
O -2.82905 -10.527 32.6905
O -5.43191 -9.83 32.0492
O -2.07919 -6.02987 34.554
O -2.71083 -7.17502 31.5327
O -4.3419 -6.32827 32.3148
O 2.28891 -7.8843 28.0362
Si 2.32191 -9.5044 28.1899
Si 1.39479 -6.5554 28.2559
O -1.204 -8.2989 29.579
Si -0.819629 -9.89096 29.0839
Si -1.66187 -6.71824 28.5683
O -1.05277 -10.7198 30.5213
O 0.793828 -10.0581 28.6142
O -1.81429 -10.4842 27.8659
O -1.11343 -6.37188 30.1002
O -0.0756707 -7.13189 28.4116
O -1.63548 -6.71451 26.9329
O -6.20252 -7.55432 45.6589
Si -7.54935 -8.49395 45.6111
Si -5.41804 -6.12388 45.8818
O -8.28077 -5.28747 46.0965
Si -9.62448 -6.17525 46.2212
Si -7.60319 -4.04157 45.2809
O -9.91201 -5.98884 47.8623
O -8.96195 -7.66633 45.9007
O -10.4393 -5.33519 44.9739
O -7.35914 -3.3755 46.8506
O -6.35427 -5.11089 44.7867
O -7.04844 -2.68289 44.0974
O -3.84783 -8.03656 40.9367
Si -4.15185 -9.51832 41.5589
Si -4.2271 -6.4613 40.8152
O -6.72031 -6.78013 42.6246
Si -7.02443 -8.39195 42.4323
Si -5.79213 -5.50738 43.1065
O -7.51952 -8.88721 43.9675
O -5.77156 -9.35805 41.9074
O -8.07056 -8.13889 41.1364
O -4.60018 -5.96827 44.3614
O -5.61895 -5.95396 40.1814
O -6.3509 -4.18159 42.3827
O 0.127999 -8.99895 37.277
Si 0.0737079 -10.5737 37.7272
Si -0.359732 -8.12843 36.0061
O -2.09985 -8.25176 38.8237
Si -2.85223 -9.72102 38.6397
Si -1.94551 -6.61015 38.9179
O -3.57206 -10.1317 40.0982
O -1.5368 -10.6513 38.1772
O -3.99206 -9.70156 37.427
O -3.05189 -5.96182 39.8701
O -1.91301 -7.70622 36.1446
O -2.09304 -5.94097 37.4727
O 2.72508 -7.3465 33.4001
Si 3.36008 -8.87801 33.5612
Si 2.83851 -5.66763 33.3527
O -0.0479159 -9.18816 34.8278
Si 0.766367 -10.5729 34.5619
Si -0.285569 -5.83446 34.0345
O 0.555214 -11.0976 36.1736
O 2.26636 -10.0744 34.0119
O -0.195106 -11.093 33.3064
O 0.168701 -6.76222 35.3071