#This file was generated automatically 

1536 atoms
2 atom types
-500 500 xlo xhi
-500 500 ylo yhi
0.25 5.35 zlo zhi

Masses

1 28.085
2 15.999

Atoms

1 2 0.0 85.54 40.66 2.98 
2 1 0.0 87.12 41.13 2.98 
3 1 0.0 84.18 39.75 2.98 
4 2 0.0 87.06 37.35 2.98 
5 1 0.0 88.44 38.23 2.98 
6 1 0.0 85.47 36.91 2.98 
7 2 0.0 89.22 37.72 4.35 
8 2 0.0 88.17 39.85 2.98 
9 2 0.0 89.22 37.72 1.62 
10 2 0.0 85.27 36.04 4.35 
11 2 0.0 84.43 38.15 2.99 
12 2 0.0 85.27 36.04 1.62 
13 2 0.0 83.43 44.8 0.26 
14 1 0.0 84.98 45.34 0.26 
15 1 0.0 82.11 43.82 0.26 
16 2 0.0 85.1 41.56 0.26 
17 1 0.0 86.45 42.52 0.26 
18 1 0.0 83.54 41.05 0.26 
19 2 0.0 87.25 42.05 1.62 
20 2 0.0 86.09 44.12 0.26 
21 2 0.0 87.24 42.04 4.35 
22 2 0.0 83.39 40.17 1.62 
23 2 0.0 82.44 42.24 0.26 
24 2 0.0 83.39 40.17 4.35 
25 2 0.0 69.99 63.68 2.98 
26 1 0.0 71.36 64.59 2.98 
27 1 0.0 68.94 62.42 2.98 
28 2 0.0 72.39 60.95 2.98 
29 1 0.0 73.46 62.2 2.98 
30 1 0.0 71.0 60.07 2.98 
31 2 0.0 74.35 61.93 4.35 
32 2 0.0 72.73 63.67 2.98 
33 2 0.0 74.35 61.94 1.62 
34 2 0.0 71.06 59.18 4.35 
35 2 0.0 69.64 60.96 2.99 
36 2 0.0 71.06 59.18 1.62 
37 2 0.0 66.77 67.04 0.26 
38 1 0.0 68.1 68.01 0.26 
39 1 0.0 65.78 65.72 0.26 
40 2 0.0 69.3 64.42 0.26 
41 1 0.0 70.31 65.72 0.26 
42 1 0.0 67.96 63.48 0.26 
43 2 0.0 71.21 65.5 1.62 
44 2 0.0 69.51 67.16 0.26 
45 2 0.0 71.21 65.5 4.35 
46 2 0.0 68.06 62.59 1.62 
47 2 0.0 66.56 64.3 0.26 
48 2 0.0 68.06 62.59 4.35 
49 2 0.0 48.46 81.26 2.98 
50 1 0.0 49.52 82.52 2.98 
51 1 0.0 47.82 79.74 2.98 
52 2 0.0 51.55 79.33 2.98 
53 1 0.0 52.22 80.84 2.98 
54 1 0.0 50.47 78.09 2.98 
55 2 0.0 53.14 80.84 4.35 
56 2 0.0 51.09 82.04 2.98 
57 2 0.0 53.14 80.84 1.62 
58 2 0.0 50.79 77.26 4.35 
59 2 0.0 48.92 78.55 2.99 
60 2 0.0 50.78 77.26 1.62 
61 2 0.0 27.26 90.63 0.26 
62 1 0.0 45.41 84.85 0.26 
63 1 0.0 43.85 82.0 0.26 
64 2 0.0 47.59 81.77 0.26 
65 1 0.0 48.19 83.3 0.26 
66 1 0.0 46.58 80.48 0.26 
67 2 0.0 49.11 83.35 1.62 
68 2 0.0 47.0 84.45 0.26 
69 2 0.0 49.11 83.35 4.35 
70 2 0.0 46.93 79.66 1.62 
71 2 0.0 45.0 80.86 0.26 
72 2 0.0 46.93 79.66 4.35 
73 2 0.0 22.78 91.86 2.98 
74 1 0.0 23.42 93.38 2.98 
75 1 0.0 22.6 90.23 2.98 
76 2 0.0 26.29 90.92 2.98 
77 1 0.0 26.5 92.55 2.98 
78 1 0.0 25.62 89.42 2.98 
79 2 0.0 27.38 92.82 4.35 
80 2 0.0 25.07 93.37 2.98 
81 2 0.0 27.38 92.82 1.62 
82 2 0.0 26.16 88.71 4.35 
83 2 0.0 24.0 89.4 2.99 
84 2 0.0 26.16 88.71 1.62 
85 2 0.0 -0.23 94.68 0.26 
86 1 0.0 18.81 94.42 0.26 
87 1 0.0 -0.0 93.05 0.26 
88 2 0.0 21.8 92.1 0.26 
89 1 0.0 21.92 93.74 0.26 
90 1 0.0 21.2 90.57 0.26 
91 2 0.0 22.79 94.06 1.62 
92 2 0.0 20.46 94.5 0.26 
93 2 0.0 22.79 94.06 4.35 
94 2 0.0 21.78 89.89 1.62 
95 2 0.0 19.58 90.48 0.26 
96 2 0.0 21.78 89.89 4.35 
97 2 0.0 -4.88 94.56 2.98 
98 1 0.0 -4.7 96.19 2.98 
99 1 0.0 -4.57 92.94 2.98 
100 2 0.0 -1.24 94.67 2.98 
101 1 0.0 -1.52 96.29 2.98 
102 1 0.0 -1.45 93.04 2.98 
103 2 0.0 -0.75 96.81 4.35 
104 2 0.0 -3.12 96.66 2.99 
105 2 0.0 -0.75 96.81 1.62 
106 2 0.0 -0.72 92.52 4.35 
107 2 0.0 -3.0 92.56 2.99 
108 2 0.0 -0.72 92.52 1.62 
109 2 0.0 -27.71 90.56 0.26 
110 1 0.0 -9.42 95.85 0.26 
111 1 0.0 -27.02 89.07 0.26 
112 2 0.0 -5.88 94.5 0.26 
113 1 0.0 -6.24 96.11 0.26 
114 1 0.0 -6.01 92.86 0.26 
115 2 0.0 -5.5 96.66 1.62 
116 2 0.0 -7.86 96.4 0.26 
117 2 0.0 -5.5 96.66 4.35 
118 2 0.0 -5.26 92.38 1.62 
119 2 0.0 -7.53 92.3 0.26 
120 2 0.0 -5.26 92.38 4.35 
121 2 0.0 -32.12 89.1 2.98 
122 1 0.0 -32.43 90.72 2.98 
123 1 0.0 -31.36 87.64 2.98 
124 2 0.0 -28.68 90.26 2.98 
125 1 0.0 -29.41 91.73 2.98 
126 1 0.0 -28.4 88.64 2.98 
127 2 0.0 -28.83 92.45 4.35 
128 2 0.0 -31.06 91.63 2.98 
129 2 0.0 -28.83 92.45 1.62 
130 2 0.0 -27.55 88.36 4.35 
131 2 0.0 -29.74 87.73 2.99 
132 2 0.0 -27.56 88.35 1.62 
133 2 0.0 -52.82 78.65 0.26 
134 1 0.0 -36.84 89.02 0.26 
135 1 0.0 -35.62 86.01 0.26 
136 2 0.0 -33.07 88.75 0.26 
137 1 0.0 -33.88 90.19 0.26 
138 1 0.0 -32.72 87.15 0.26 
139 2 0.0 -33.33 90.93 1.62 
140 2 0.0 -35.52 90.0 0.26 
141 2 0.0 -33.33 90.93 4.35 
142 2 0.0 -31.86 86.9 1.62 
143 2 0.0 -34.01 86.17 0.26 
144 2 0.0 -31.86 86.9 4.35 
145 2 0.0 -56.62 75.97 2.98 
146 1 0.0 -57.38 77.43 2.98 
147 1 0.0 -55.46 74.8 2.98 
148 2 0.0 -53.65 78.09 2.98 
149 1 0.0 -54.79 79.28 2.98 
150 1 0.0 -52.92 76.62 2.98 
151 2 0.0 -54.43 80.14 4.35 
152 2 0.0 -56.33 78.7 2.98 
153 2 0.0 -54.44 80.14 1.62 
154 2 0.0 -52.03 76.59 4.35 
155 2 0.0 -53.94 75.35 2.99 
156 2 0.0 -52.03 76.59 1.62 
157 2 0.0 -73.4 59.98 0.26 
158 1 0.0 -61.11 74.53 0.26 
159 1 0.0 -59.07 72.0 0.26 
160 2 0.0 -57.42 75.37 0.26 
161 1 0.0 -58.61 76.5 0.26 
162 1 0.0 -56.62 73.93 0.26 
163 2 0.0 -58.3 77.38 1.62 
164 2 0.0 -60.12 75.85 0.26 
165 2 0.0 -58.3 77.38 4.35 
166 2 0.0 -55.73 73.95 1.62 
167 2 0.0 -57.58 72.62 0.26 
168 2 0.0 -55.73 73.95 4.35 
169 2 0.0 -76.26 56.31 2.98 
170 1 0.0 -77.41 57.48 2.98 
171 1 0.0 -74.81 55.52 2.98 
172 2 0.0 -74.03 59.19 2.98 
173 1 0.0 -75.47 60.01 2.98 
174 1 0.0 -72.91 58.0 2.98 
175 2 0.0 -75.38 60.93 4.35 
176 2 0.0 -76.77 59.0 2.98 
177 2 0.0 -75.38 60.93 1.62 
178 2 0.0 -72.04 58.23 4.35 
179 2 0.0 -73.52 56.5 2.99 
180 2 0.0 -72.04 58.23 1.62 
181 2 0.0 -87.66 36.12 0.26 
182 1 0.0 -80.14 53.62 0.26 
183 1 0.0 -77.45 51.79 0.26 
184 2 0.0 -76.85 55.49 0.26 
185 1 0.0 -78.32 56.24 0.26 
186 1 0.0 -75.67 54.36 0.26 
187 2 0.0 -78.28 57.16 1.62 
188 2 0.0 -79.58 55.17 0.26 
189 2 0.0 -78.28 57.16 4.35 
190 2 0.0 -74.82 54.63 1.62 
191 2 0.0 -76.2 52.83 0.26 
192 2 0.0 -74.82 54.63 4.35 
193 2 0.0 -89.32 31.77 2.98 
194 1 0.0 -90.77 32.56 2.98 
195 1 0.0 -87.71 31.44 2.98 
196 2 0.0 -88.04 35.18 2.98 
197 1 0.0 -89.64 35.54 2.98 
198 1 0.0 -86.61 34.36 2.98 
199 2 0.0 -89.83 36.45 4.35 
200 2 0.0 -90.6 34.2 2.98 
201 2 0.0 -89.83 36.45 1.62 
202 2 0.0 -85.85 34.84 4.35 
203 2 0.0 -86.75 32.75 2.99 
204 2 0.0 -85.85 34.84 1.62 
205 2 0.0 -94.36 9.13 0.26 
206 1 0.0 -92.25 28.07 0.26 
207 1 0.0 -89.15 27.1 0.26 
208 2 0.0 -89.66 30.82 0.26 
209 1 0.0 -91.28 31.1 0.26 
210 1 0.0 -88.19 30.08 0.26 
211 2 0.0 -91.51 32.0 1.62 
212 2 0.0 -92.17 29.72 0.26 
213 2 0.0 -91.5 32.0 4.35 
214 2 0.0 -87.46 30.59 1.62 
215 2 0.0 -88.26 28.46 0.26 
216 2 0.0 -87.46 30.59 4.35 
217 2 0.0 -94.7 4.49 2.98 
218 1 0.0 -96.31 4.83 2.98 
219 1 0.0 -93.06 4.64 2.98 
220 2 0.0 -94.46 8.12 2.98 
221 1 0.0 -96.1 8.01 2.98 
222 1 0.0 -92.85 7.76 2.98 
223 2 0.0 -96.54 8.82 4.35 
224 2 0.0 -96.63 6.45 2.98 
225 2 0.0 -96.54 8.82 1.62 
226 2 0.0 -92.27 8.43 4.35 
227 2 0.0 -92.53 6.17 2.99 
228 2 0.0 -92.27 8.43 1.62 
229 2 0.0 -94.81 -0.16 0.26 
230 1 0.0 -96.43 0.1 0.26 
231 1 0.0 -93.18 0.07 0.26 
232 2 0.0 -94.74 3.48 0.26 
233 1 0.0 -96.38 3.28 0.26 
234 1 0.0 -93.13 3.2 0.26 
235 2 0.0 -96.86 4.08 1.62 
236 2 0.0 -96.83 1.7 0.26 
237 2 0.0 -96.86 4.08 4.35 
238 2 0.0 -92.57 3.9 1.62 
239 2 0.0 -92.72 1.63 0.26 
240 2 0.0 -92.57 3.9 4.35 
241 2 0.0 -94.68 -4.8 2.98 
242 1 0.0 -96.32 -4.63 2.98 
243 1 0.0 -93.07 -4.49 2.98 
244 2 0.0 -94.8 -1.17 2.98 
245 1 0.0 -96.42 -1.45 2.98 
246 1 0.0 -93.17 -1.37 2.98 
247 2 0.0 -96.94 -0.68 4.35 
248 2 0.0 -96.79 -3.05 2.98 
249 2 0.0 -96.94 -0.68 1.62 
250 2 0.0 -92.65 -0.64 4.35 
251 2 0.0 -92.69 -2.92 2.99 
252 2 0.0 -92.65 -0.65 1.62 
253 2 0.0 -94.33 -9.44 0.26 
254 1 0.0 -95.97 -9.35 0.26 
255 1 0.0 -92.73 -9.05 0.26 
256 2 0.0 -94.62 -5.81 0.26 
257 1 0.0 -96.23 -6.17 0.26 
258 1 0.0 -92.99 -5.94 0.26 
259 2 0.0 -96.79 -5.43 1.62 
260 2 0.0 -96.52 -7.79 0.26 
261 2 0.0 -96.79 -5.43 4.35 
262 2 0.0 -92.5 -5.18 1.62 
263 2 0.0 -92.42 -7.46 0.26 
264 2 0.0 -92.5 -5.18 4.35 
265 2 0.0 -93.74 -14.05 2.98 
266 1 0.0 -95.38 -14.04 2.98 
267 1 0.0 -92.16 -13.58 2.98 
268 2 0.0 -94.22 -10.44 2.98 
269 1 0.0 -95.8 -10.88 2.98 
270 1 0.0 -92.57 -10.48 2.98 
271 2 0.0 -96.39 -10.17 4.35 
272 2 0.0 -96.01 -12.52 2.98 
273 2 0.0 -96.4 -10.17 1.62 
274 2 0.0 -92.13 -9.71 4.35 
275 2 0.0 -91.94 -11.98 2.99 
276 2 0.0 -92.13 -9.71 1.62 
277 2 0.0 -92.92 -18.63 0.26 
278 1 0.0 -94.57 -18.7 0.26 
279 1 0.0 -91.37 -18.08 0.26 
280 2 0.0 -93.58 -15.05 0.26 
281 1 0.0 -95.14 -15.57 0.26 
282 1 0.0 -91.94 -15.01 0.26 
283 2 0.0 -95.77 -14.88 1.62 
284 2 0.0 -95.27 -17.21 0.26 
285 2 0.0 -95.77 -14.88 4.35 
286 2 0.0 -91.53 -14.21 1.62 
287 2 0.0 -91.23 -16.47 0.26 
288 2 0.0 -91.53 -14.21 4.35 
289 2 0.0 -91.88 -23.16 2.98 
290 1 0.0 -93.52 -23.31 2.98 
291 1 0.0 -90.36 -22.54 2.98 
292 2 0.0 -92.72 -19.61 2.98 
293 1 0.0 -94.25 -20.21 2.98 
294 1 0.0 -91.08 -19.49 2.98 
295 2 0.0 -94.91 -19.56 4.35 
296 2 0.0 -94.3 -21.86 2.98 
297 2 0.0 -94.91 -19.56 1.62 
298 2 0.0 -90.71 -18.68 4.35 
299 2 0.0 -90.3 -20.91 2.98 
300 2 0.0 -90.71 -18.68 1.62 
301 2 0.0 -90.62 -27.63 0.26 
302 1 0.0 -92.25 -27.86 0.26 
303 1 0.0 -89.13 -26.93 0.26 
304 2 0.0 -91.63 -24.13 0.26 
305 1 0.0 -93.13 -24.8 0.26 
306 1 0.0 -90.0 -23.93 0.26 
307 2 0.0 -93.82 -24.19 1.62 
308 2 0.0 -93.1 -26.45 0.26 
309 2 0.0 -93.82 -24.19 4.35 
310 2 0.0 -89.67 -23.1 1.62 
311 2 0.0 -89.15 -25.31 0.26 
312 2 0.0 -89.67 -23.1 4.35 
313 2 0.0 -81.1 -48.77 2.97 
314 1 0.0 -82.63 -49.39 2.98 
315 1 0.0 -79.83 -47.73 2.98 
316 2 0.0 -82.93 -45.62 2.97 
317 1 0.0 -84.22 -46.64 2.98 
318 1 0.0 -81.4 -45.03 2.98 
319 2 0.0 -85.04 -46.2 4.34 
320 2 0.0 -83.79 -48.22 2.98 
321 2 0.0 -85.05 -46.21 1.62 
322 2 0.0 -81.29 -44.14 4.34 
323 2 0.0 -80.24 -46.16 2.98 
324 2 0.0 -81.28 -44.14 1.62 
325 2 0.0 -78.6 -52.68 0.26 
326 1 0.0 -80.09 -53.37 0.25 
327 1 0.0 -77.37 -51.58 0.25 
328 2 0.0 -80.57 -49.63 0.26 
329 1 0.0 -81.82 -50.7 0.25 
330 1 0.0 -79.07 -48.96 0.25 
331 2 0.0 -82.66 -50.31 1.62 
332 2 0.0 -81.31 -52.27 0.25 
333 2 0.0 -82.66 -50.31 4.34 
334 2 0.0 -79.0 -48.07 1.62 
335 2 0.0 -77.86 -50.03 0.25 
336 2 0.0 -79.0 -48.07 4.34 
337 2 0.0 -63.39 -70.18 2.97 
338 1 0.0 -64.67 -71.21 2.98 
339 1 0.0 -62.47 -68.82 2.98 
340 2 0.0 -66.05 -67.69 2.97 
341 1 0.0 -66.99 -69.04 2.98 
342 1 0.0 -64.75 -66.68 2.98 
343 2 0.0 -67.9 -68.86 4.34 
344 2 0.0 -66.12 -70.43 2.98 
345 2 0.0 -67.9 -68.86 1.62 
346 2 0.0 -64.9 -65.8 4.34 
347 2 0.0 -63.31 -67.43 2.98 
348 2 0.0 -64.89 -65.8 1.62 
349 2 0.0 -44.42 -83.5 0.26 
350 1 0.0 -61.1 -74.3 0.25 
351 1 0.0 -59.01 -71.81 0.25 
352 2 0.0 -62.64 -70.85 0.26 
353 1 0.0 -63.52 -72.24 0.25 
354 1 0.0 -61.39 -69.78 0.25 
355 2 0.0 -64.44 -72.11 1.62 
356 2 0.0 -62.58 -73.59 0.25 
357 2 0.0 -64.44 -72.11 4.34 
358 2 0.0 -61.58 -68.91 1.62 
359 2 0.0 -59.92 -70.46 0.25 
360 2 0.0 -61.58 -68.91 4.34 
361 2 0.0 -40.27 -85.59 2.97 
362 1 0.0 -41.19 -86.95 2.98 
363 1 0.0 -39.78 -84.02 2.98 
364 2 0.0 -43.53 -83.97 2.97 
365 1 0.0 -44.05 -85.53 2.98 
366 1 0.0 -42.58 -82.63 2.98 
367 2 0.0 -44.97 -85.63 4.34 
368 2 0.0 -42.81 -86.62 2.98 
369 2 0.0 -44.97 -85.63 1.62 
370 2 0.0 -42.97 -81.83 4.34 
371 2 0.0 -40.98 -82.94 2.98 
372 2 0.0 -42.97 -81.83 1.62 
373 2 0.0 -18.25 -92.84 0.26 
374 1 0.0 -36.88 -88.87 0.25 
375 1 0.0 -35.6 -85.88 0.25 
376 2 0.0 -39.35 -86.02 0.26 
377 1 0.0 -39.79 -87.6 0.25 
378 1 0.0 -38.47 -84.63 0.25 
379 2 0.0 -40.71 -87.74 1.62 
380 2 0.0 -38.5 -88.62 0.25 
381 2 0.0 -40.71 -87.74 4.34 
382 2 0.0 -38.9 -83.85 1.62 
383 2 0.0 -36.86 -84.86 0.25 
384 2 0.0 -38.9 -83.85 4.34 
385 2 0.0 -13.67 -93.63 2.97 
386 1 0.0 -14.16 -95.2 2.98 
387 1 0.0 -13.65 -91.99 2.98 
388 2 0.0 -17.26 -93.03 2.97 
389 1 0.0 -17.3 -94.68 2.98 
390 1 0.0 -16.73 -91.47 2.98 
391 2 0.0 -18.16 -95.03 4.34 
392 2 0.0 -15.8 -95.36 2.98 
393 2 0.0 -18.16 -95.04 1.62 
394 2 0.0 -17.35 -90.82 4.34 
395 2 0.0 -15.12 -91.3 2.98 
396 2 0.0 -17.34 -90.82 1.62 
397 2 0.0 9.51 -94.17 0.26 
398 1 0.0 -9.47 -95.79 0.25 
399 1 0.0 9.12 -92.58 0.26 
400 2 0.0 -12.67 -93.78 0.26 
401 1 0.0 -12.63 -95.42 0.25 
402 1 0.0 -12.22 -92.19 0.25 
403 2 0.0 -13.47 -95.82 1.62 
404 2 0.0 -11.1 -96.03 0.25 
405 2 0.0 -13.47 -95.82 4.34 
406 2 0.0 -12.87 -91.57 1.62 
407 2 0.0 -10.62 -91.94 0.25 
408 2 0.0 -12.86 -91.57 4.34 
409 2 0.0 14.12 -93.6 2.97 
410 1 0.0 14.1 -95.25 2.98 
411 1 0.0 13.66 -92.02 2.98 
412 2 0.0 10.51 -94.07 2.98 
413 1 0.0 10.95 -95.66 2.98 
414 1 0.0 10.56 -92.43 2.98 
415 2 0.0 10.23 -96.25 4.35 
416 2 0.0 12.58 -95.87 2.98 
417 2 0.0 10.23 -96.25 1.62 
418 2 0.0 9.78 -91.98 4.35 
419 2 0.0 12.05 -91.79 2.98 
420 2 0.0 9.79 -91.98 1.62 
421 2 0.0 36.45 -87.39 0.26 
422 1 0.0 18.76 -94.45 0.26 
423 1 0.0 35.62 -85.97 0.26 
424 2 0.0 15.12 -93.45 0.26 
425 1 0.0 15.63 -95.01 0.26 
426 1 0.0 15.08 -91.8 0.25 
427 2 0.0 14.95 -95.64 1.62 
428 2 0.0 17.27 -95.14 0.26 
429 2 0.0 14.95 -95.63 4.35 
430 2 0.0 14.29 -91.39 1.62 
431 2 0.0 16.54 -91.1 0.26 
432 2 0.0 14.29 -91.4 4.34 
433 2 0.0 40.7 -85.5 2.98 
434 1 0.0 41.16 -87.08 2.98 
435 1 0.0 39.8 -84.12 2.98 
436 2 0.0 37.38 -86.99 2.98 
437 1 0.0 38.26 -88.39 2.98 
438 1 0.0 36.95 -85.41 2.98 
439 2 0.0 37.75 -89.16 4.35 
440 2 0.0 39.89 -88.12 2.98 
441 2 0.0 37.75 -89.16 1.62 
442 2 0.0 36.08 -85.21 4.35 
443 2 0.0 38.19 -84.37 2.99 
444 2 0.0 36.08 -85.21 1.62 
445 2 0.0 60.28 -73.08 0.26 
446 1 0.0 45.39 -84.96 0.26 
447 1 0.0 59.07 -71.96 0.26 
448 2 0.0 41.61 -85.06 0.26 
449 1 0.0 42.55 -86.41 0.26 
450 1 0.0 41.1 -83.5 0.26 
451 2 0.0 42.08 -87.2 1.62 
452 2 0.0 44.16 -86.06 0.26 
453 2 0.0 42.08 -87.2 4.35 
454 2 0.0 40.22 -83.34 1.62 
455 2 0.0 42.29 -82.4 0.26 
456 2 0.0 40.22 -83.34 4.35 
457 2 0.0 63.79 -70.04 2.98 
458 1 0.0 64.69 -71.42 2.98 
459 1 0.0 62.53 -68.99 2.98 
460 2 0.0 61.05 -72.43 2.98 
461 1 0.0 62.3 -73.51 2.98 
462 1 0.0 60.18 -71.04 2.98 
463 2 0.0 62.03 -74.4 4.35 
464 2 0.0 63.77 -72.78 2.98 
465 2 0.0 62.03 -74.4 1.62 
466 2 0.0 59.29 -71.1 4.35 
467 2 0.0 61.07 -69.69 2.99 
468 2 0.0 59.29 -71.1 1.62 
469 2 0.0 78.91 -52.46 0.26 
470 1 0.0 68.13 -68.16 0.26 
471 1 0.0 77.43 -51.75 0.26 
472 2 0.0 64.54 -69.36 0.26 
473 1 0.0 65.83 -70.37 0.26 
474 1 0.0 63.6 -68.01 0.26 
475 2 0.0 65.61 -71.27 1.62 
476 2 0.0 67.27 -69.57 0.26 
477 2 0.0 65.61 -71.27 4.35 
478 2 0.0 62.71 -68.11 1.62 
479 2 0.0 64.42 -66.61 0.26 
480 2 0.0 62.71 -68.11 4.35 
481 2 0.0 81.39 -48.53 2.98 
482 1 0.0 82.66 -49.58 2.98 
483 1 0.0 79.88 -47.89 2.98 
484 2 0.0 79.47 -51.62 2.98 
485 1 0.0 80.97 -52.29 2.98 
486 1 0.0 78.23 -50.54 2.98 
487 2 0.0 80.98 -53.21 4.35 
488 2 0.0 82.17 -51.16 2.98 
489 2 0.0 80.98 -53.21 1.62 
490 2 0.0 77.39 -50.86 4.35 
491 2 0.0 78.68 -48.99 2.99 
492 2 0.0 77.39 -50.86 1.62 
493 2 0.0 90.76 -27.31 0.26 
494 1 0.0 84.99 -45.47 0.26 
495 1 0.0 82.14 -43.91 0.26 
496 2 0.0 81.91 -47.66 0.26 
497 1 0.0 83.44 -48.25 0.26 
498 1 0.0 80.61 -46.64 0.26 
499 2 0.0 83.49 -49.18 1.62 
500 2 0.0 84.59 -47.07 0.26 
501 2 0.0 83.49 -49.18 4.35 
502 2 0.0 79.79 -47.0 1.62 
503 2 0.0 81.0 -45.07 0.26 
504 2 0.0 79.8 -47.0 4.35 
505 2 0.0 91.99 -22.83 2.98 
506 1 0.0 93.5 -23.47 2.98 
507 1 0.0 90.35 -22.65 2.98 
508 2 0.0 91.04 -26.34 2.98 
509 1 0.0 92.68 -26.55 2.98 
510 1 0.0 89.54 -25.67 2.98 
511 2 0.0 92.95 -27.43 4.35 
512 2 0.0 93.5 -25.12 2.98 
513 2 0.0 92.95 -27.43 1.62 
514 2 0.0 88.83 -26.22 4.35 
515 2 0.0 89.53 -24.05 2.99 
516 2 0.0 88.83 -26.22 1.62 
517 2 0.0 94.78 0.2 0.26 
518 1 0.0 94.54 -18.86 0.26 
519 1 0.0 91.36 -18.2 0.26 
520 2 0.0 92.23 -21.85 0.26 
521 1 0.0 93.87 -21.97 0.26 
522 1 0.0 90.69 -21.25 0.26 
523 2 0.0 94.18 -22.84 1.62 
524 2 0.0 94.62 -20.5 0.26 
525 2 0.0 94.18 -22.84 4.35 
526 2 0.0 90.01 -21.83 1.62 
527 2 0.0 90.6 -19.63 0.26 
528 2 0.0 90.01 -21.83 4.35 
529 2 0.0 94.66 4.85 2.98 
530 1 0.0 96.29 4.67 2.98 
531 1 0.0 93.04 4.54 2.98 
532 2 0.0 94.77 1.21 2.98 
533 1 0.0 96.39 1.49 2.98 
534 1 0.0 93.14 1.42 2.98 
535 2 0.0 96.91 0.72 4.35 
536 2 0.0 96.77 3.1 2.98 
537 2 0.0 96.91 0.72 1.62 
538 2 0.0 92.62 0.69 4.35 
539 2 0.0 92.66 2.96 2.99 
540 2 0.0 92.62 0.69 1.62 
541 2 0.0 94.31 9.49 0.26 
542 1 0.0 95.95 9.39 0.26 
543 1 0.0 92.71 9.1 0.26 
544 2 0.0 94.6 5.86 0.26 
545 1 0.0 96.21 6.22 0.26 
546 1 0.0 92.96 5.98 0.26 
547 2 0.0 96.76 5.47 1.62 
548 2 0.0 96.5 7.84 0.26 
549 2 0.0 96.76 5.47 4.35 
550 2 0.0 92.48 5.23 1.62 
551 2 0.0 92.4 7.5 0.26 
552 2 0.0 92.48 5.23 4.35 
553 2 0.0 93.73 14.1 2.98 
554 1 0.0 95.37 14.09 2.98 
555 1 0.0 92.15 13.63 2.98 
556 2 0.0 94.2 10.49 2.98 
557 1 0.0 95.79 10.93 2.98 
558 1 0.0 92.56 10.53 2.98 
559 2 0.0 96.38 10.21 4.35 
560 2 0.0 96.0 12.56 2.98 
561 2 0.0 96.38 10.21 1.62 
562 2 0.0 92.11 9.76 4.35 
563 2 0.0 91.92 12.03 2.99 
564 2 0.0 92.11 9.76 1.62 
565 2 0.0 92.92 18.68 0.26 
566 1 0.0 94.56 18.75 0.26 
567 1 0.0 91.37 18.13 0.26 
568 2 0.0 93.57 15.1 0.26 
569 1 0.0 95.13 15.61 0.26 
570 1 0.0 91.93 15.06 0.26 
571 2 0.0 95.76 14.93 1.62 
572 2 0.0 95.26 17.26 0.26 
573 2 0.0 95.76 14.93 4.35 
574 2 0.0 91.52 14.26 1.62 
575 2 0.0 91.22 16.52 0.26 
576 2 0.0 91.52 14.26 4.35 
577 2 0.0 91.88 23.21 2.98 
578 1 0.0 93.52 23.36 2.98 
579 1 0.0 90.36 22.59 2.98 
580 2 0.0 92.71 19.67 2.98 
581 1 0.0 94.25 20.26 2.98 
582 1 0.0 91.07 19.55 2.98 
583 2 0.0 94.9 19.61 4.35 
584 2 0.0 94.3 21.91 2.98 
585 2 0.0 94.91 19.61 1.62 
586 2 0.0 90.71 18.73 4.35 
587 2 0.0 90.29 20.97 2.99 
588 2 0.0 90.71 18.73 1.62 
589 2 0.0 90.62 27.68 0.26 
590 1 0.0 92.25 27.92 0.26 
591 1 0.0 89.14 26.99 0.26 
592 2 0.0 91.63 24.19 0.26 
593 1 0.0 93.13 24.85 0.26 
594 1 0.0 90.0 23.99 0.26 
595 2 0.0 93.82 24.24 1.62 
596 2 0.0 93.1 26.5 0.26 
597 2 0.0 93.82 24.24 4.35 
598 2 0.0 89.67 23.15 1.62 
599 2 0.0 89.15 25.37 0.26 
600 2 0.0 89.67 23.16 4.35 
601 2 0.0 89.15 32.09 2.98 
602 1 0.0 90.76 32.4 2.98 
603 1 0.0 87.69 31.32 2.98 
604 2 0.0 90.32 28.65 2.98 
605 1 0.0 91.79 29.39 2.98 
606 1 0.0 88.7 28.37 2.98 
607 2 0.0 92.51 28.81 4.35 
608 2 0.0 91.68 31.03 2.98 
609 2 0.0 92.51 28.81 1.62 
610 2 0.0 88.42 27.52 4.35 
611 2 0.0 87.79 29.7 2.99 
612 2 0.0 88.42 27.52 1.62 
613 2 0.0 87.45 36.42 0.26 
614 1 0.0 89.05 36.81 0.26 
615 1 0.0 86.04 35.58 0.26 
616 2 0.0 88.8 33.04 0.26 
617 1 0.0 90.23 33.85 0.26 
618 1 0.0 87.19 32.68 0.26 
619 2 0.0 90.98 33.3 1.62 
620 2 0.0 90.03 35.49 0.26 
621 2 0.0 90.98 33.3 4.35 
622 2 0.0 86.95 31.82 1.62 
623 2 0.0 86.21 33.97 0.26 
624 2 0.0 86.95 31.82 4.35 
625 2 0.0 -89.14 -32.04 2.98 
626 1 0.0 -90.75 -32.35 2.98 
627 1 0.0 -87.69 -31.27 2.98 
628 2 0.0 -90.32 -28.59 2.98 
629 1 0.0 -91.79 -29.34 2.98 
630 1 0.0 -88.7 -28.31 2.98 
631 2 0.0 -92.51 -28.75 4.35 
632 2 0.0 -91.67 -30.98 2.98 
633 2 0.0 -92.51 -28.75 1.62 
634 2 0.0 -88.42 -27.46 4.35 
635 2 0.0 -87.78 -29.65 2.98 
636 2 0.0 -88.41 -27.46 1.62 
637 2 0.0 -87.44 -36.36 0.26 
638 1 0.0 -89.04 -36.75 0.26 
639 1 0.0 -86.03 -35.52 0.26 
640 2 0.0 -88.79 -32.98 0.26 
641 1 0.0 -90.22 -33.8 0.26 
642 1 0.0 -87.19 -32.62 0.26 
643 2 0.0 -90.97 -33.25 1.62 
644 2 0.0 -90.02 -35.43 0.26 
645 2 0.0 -90.97 -33.25 4.35 
646 2 0.0 -86.94 -31.76 1.62 
647 2 0.0 -86.2 -33.91 0.26 
648 2 0.0 -86.94 -31.76 4.35 
649 2 0.0 -85.53 -40.6 2.97 
650 1 0.0 -87.11 -41.07 2.98 
651 1 0.0 -84.16 -39.69 2.98 
652 2 0.0 -87.04 -37.29 2.98 
653 1 0.0 -88.43 -38.17 2.98 
654 1 0.0 -85.46 -36.85 2.98 
655 2 0.0 -89.21 -37.66 4.35 
656 2 0.0 -88.15 -39.8 2.98 
657 2 0.0 -89.21 -37.66 1.62 
658 2 0.0 -85.26 -35.98 4.35 
659 2 0.0 -84.42 -38.09 2.98 
660 2 0.0 -85.26 -35.98 1.62 
661 2 0.0 -83.41 -44.74 0.26 
662 1 0.0 -84.97 -45.28 0.25 
663 1 0.0 -82.09 -43.76 0.25 
664 2 0.0 -85.09 -41.5 0.26 
665 1 0.0 -86.43 -42.46 0.25 
666 1 0.0 -83.53 -40.99 0.25 
667 2 0.0 -87.23 -41.99 1.62 
668 2 0.0 -86.07 -44.06 0.25 
669 2 0.0 -87.23 -41.99 4.35 
670 2 0.0 -83.37 -40.11 1.62 
671 2 0.0 -82.42 -42.17 0.25 
672 2 0.0 -83.37 -40.11 4.34 
673 2 0.0 81.12 48.83 2.98 
674 1 0.0 82.64 49.45 2.98 
675 1 0.0 79.84 47.79 2.98 
676 2 0.0 82.95 45.68 2.98 
677 1 0.0 84.24 46.7 2.98 
678 1 0.0 81.41 45.09 2.98 
679 2 0.0 85.06 46.27 4.35 
680 2 0.0 83.81 48.29 2.98 
681 2 0.0 85.06 46.27 1.62 
682 2 0.0 81.3 44.2 4.35 
683 2 0.0 80.25 46.22 2.99 
684 2 0.0 81.3 44.2 1.62 
685 2 0.0 78.61 52.74 0.26 
686 1 0.0 80.1 53.44 0.26 
687 1 0.0 77.39 51.64 0.26 
688 2 0.0 80.59 49.69 0.26 
689 1 0.0 81.83 50.76 0.26 
690 1 0.0 79.09 49.02 0.26 
691 2 0.0 82.67 50.38 1.62 
692 2 0.0 81.32 52.33 0.26 
693 2 0.0 82.67 50.37 4.35 
694 2 0.0 79.02 48.13 1.62 
695 2 0.0 77.87 50.09 0.26 
696 2 0.0 79.02 48.13 4.35 
697 2 0.0 75.91 56.53 2.98 
698 1 0.0 77.37 57.29 2.98 
699 1 0.0 74.75 55.37 2.98 
700 2 0.0 78.04 53.57 2.98 
701 1 0.0 79.23 54.71 2.98 
702 1 0.0 76.57 52.83 2.98 
703 2 0.0 80.09 54.36 4.35 
704 2 0.0 78.64 56.25 2.98 
705 2 0.0 80.09 54.36 1.62 
706 2 0.0 76.55 51.94 4.35 
707 2 0.0 75.31 53.85 2.99 
708 2 0.0 76.55 51.94 1.62 
709 2 0.0 73.04 60.18 0.26 
710 1 0.0 74.45 61.01 0.26 
711 1 0.0 71.93 58.96 0.26 
712 2 0.0 75.3 57.33 0.26 
713 1 0.0 76.44 58.52 0.26 
714 1 0.0 73.87 56.52 0.26 
715 2 0.0 77.31 58.22 1.62 
716 2 0.0 75.78 60.03 0.26 
717 2 0.0 77.31 58.22 4.35 
718 2 0.0 73.89 55.63 1.62 
719 2 0.0 72.56 57.47 0.26 
720 2 0.0 73.89 55.63 4.35 
721 2 0.0 -75.9 -56.47 2.97 
722 1 0.0 -77.36 -57.23 2.98 
723 1 0.0 -74.74 -55.31 2.98 
724 2 0.0 -78.03 -53.51 2.97 
725 1 0.0 -79.22 -54.65 2.98 
726 1 0.0 -76.56 -52.77 2.98 
727 2 0.0 -80.08 -54.3 4.34 
728 2 0.0 -78.63 -56.19 2.98 
729 2 0.0 -80.08 -54.3 1.62 
730 2 0.0 -76.53 -51.88 4.34 
731 2 0.0 -75.29 -53.79 2.98 
732 2 0.0 -76.53 -51.88 1.62 
733 2 0.0 -73.03 -60.12 0.26 
734 1 0.0 -74.45 -60.96 0.25 
735 1 0.0 -71.92 -58.91 0.25 
736 2 0.0 -75.29 -57.27 0.26 
737 1 0.0 -76.43 -58.46 0.25 
738 1 0.0 -73.86 -56.46 0.25 
739 2 0.0 -77.3 -58.16 1.62 
740 2 0.0 -75.77 -59.97 0.25 
741 2 0.0 -77.3 -58.16 4.34 
742 2 0.0 -73.88 -55.57 1.62 
743 2 0.0 -72.55 -57.41 0.25 
744 2 0.0 -73.88 -55.57 4.34 
745 2 0.0 -69.98 -63.63 2.97 
746 1 0.0 -71.36 -64.53 2.98 
747 1 0.0 -68.93 -62.36 2.98 
748 2 0.0 -72.38 -60.89 2.97 
749 1 0.0 -73.46 -62.14 2.98 
750 1 0.0 -70.99 -60.02 2.98 
751 2 0.0 -74.34 -61.88 4.34 
752 2 0.0 -72.72 -63.61 2.98 
753 2 0.0 -74.35 -61.88 1.62 
754 2 0.0 -71.05 -59.13 4.34 
755 2 0.0 -69.63 -60.9 2.98 
756 2 0.0 -71.05 -59.12 1.62 
757 2 0.0 -66.76 -66.98 0.26 
758 1 0.0 -68.09 -67.95 0.25 
759 1 0.0 -65.78 -65.67 0.25 
760 2 0.0 -69.3 -64.37 0.26 
761 1 0.0 -70.31 -65.67 0.25 
762 1 0.0 -67.95 -63.42 0.25 
763 2 0.0 -71.21 -65.45 1.62 
764 2 0.0 -69.51 -67.1 0.25 
765 2 0.0 -71.21 -65.45 4.34 
766 2 0.0 -68.05 -62.54 1.62 
767 2 0.0 -66.55 -64.24 0.25 
768 2 0.0 -68.06 -62.54 4.34 
769 2 0.0 63.39 70.23 2.98 
770 1 0.0 64.67 71.27 2.98 
771 1 0.0 62.47 68.87 2.98 
772 2 0.0 66.05 67.74 2.98 
773 1 0.0 67.0 69.09 2.98 
774 1 0.0 64.75 66.73 2.98 
775 2 0.0 67.91 68.91 4.35 
776 2 0.0 66.12 70.49 2.98 
777 2 0.0 67.91 68.91 1.62 
778 2 0.0 64.9 65.85 4.35 
779 2 0.0 63.31 67.49 2.99 
780 2 0.0 64.9 65.85 1.62 
781 2 0.0 59.87 73.26 0.26 
782 1 0.0 61.09 74.35 0.26 
783 1 0.0 59.01 71.85 0.26 
784 2 0.0 62.64 70.9 0.26 
785 1 0.0 63.52 72.29 0.26 
786 1 0.0 61.39 69.83 0.26 
787 2 0.0 64.44 72.16 1.62 
788 2 0.0 62.58 73.64 0.26 
789 2 0.0 64.44 72.16 4.35 
790 2 0.0 61.58 68.96 1.62 
791 2 0.0 59.92 70.51 0.26 
792 2 0.0 61.58 68.96 4.35 
793 2 0.0 56.19 76.11 2.98 
794 1 0.0 57.37 77.26 2.98 
795 1 0.0 55.41 74.66 2.98 
796 2 0.0 59.08 73.89 2.98 
797 1 0.0 59.89 75.32 2.98 
798 1 0.0 57.89 72.76 2.98 
799 2 0.0 60.82 75.24 4.35 
800 2 0.0 58.89 76.63 2.98 
801 2 0.0 60.82 75.24 1.62 
802 2 0.0 58.12 71.9 4.35 
803 2 0.0 56.38 73.37 2.99 
804 2 0.0 58.12 71.9 1.62 
805 2 0.0 52.39 78.78 0.26 
806 1 0.0 53.51 79.99 0.26 
807 1 0.0 51.68 77.3 0.26 
808 2 0.0 55.38 76.7 0.26 
809 1 0.0 56.12 78.17 0.26 
810 1 0.0 54.24 75.52 0.26 
811 2 0.0 57.05 78.13 1.62 
812 2 0.0 55.06 79.43 0.26 
813 2 0.0 57.05 78.13 4.35 
814 2 0.0 54.52 74.67 1.62 
815 2 0.0 52.71 76.05 0.26 
816 2 0.0 54.52 74.67 4.35 
817 2 0.0 -59.87 -73.21 0.26 
818 2 0.0 -56.2 -76.06 2.97 
819 1 0.0 -57.37 -77.22 2.98 
820 1 0.0 -55.41 -74.62 2.98 
821 2 0.0 -59.08 -73.84 2.97 
822 1 0.0 -59.9 -75.27 2.98 
823 1 0.0 -57.89 -72.71 2.98 
824 2 0.0 -60.82 -75.19 4.34 
825 2 0.0 -58.89 -76.58 2.98 
826 2 0.0 -60.82 -75.19 1.62 
827 2 0.0 -58.12 -71.85 4.34 
828 2 0.0 -56.39 -73.32 2.98 
829 2 0.0 -58.12 -71.85 1.62 
830 2 0.0 -52.39 -78.73 0.26 
831 1 0.0 -53.51 -79.94 0.25 
832 1 0.0 -51.68 -77.25 0.25 
833 2 0.0 -55.38 -76.66 0.26 
834 1 0.0 -56.13 -78.13 0.25 
835 1 0.0 -54.25 -75.47 0.25 
836 2 0.0 -57.05 -78.09 1.62 
837 2 0.0 -55.06 -79.38 0.25 
838 2 0.0 -57.05 -78.08 4.34 
839 2 0.0 -54.52 -74.62 1.62 
840 2 0.0 -52.72 -76.01 0.25 
841 2 0.0 -54.52 -74.62 4.34 
842 2 0.0 -48.46 -81.22 2.97 
843 1 0.0 -49.52 -82.48 2.98 
844 1 0.0 -47.82 -79.7 2.98 
845 2 0.0 -51.55 -79.29 2.97 
846 1 0.0 -52.22 -80.79 2.98 
847 1 0.0 -50.47 -78.05 2.98 
848 2 0.0 -53.15 -80.79 4.34 
849 2 0.0 -51.1 -81.99 2.98 
850 2 0.0 -53.15 -80.8 1.62 
851 2 0.0 -50.79 -77.21 4.34 
852 2 0.0 -48.92 -78.51 2.98 
853 2 0.0 -50.79 -77.21 1.62 
854 1 0.0 -45.41 -84.82 0.25 
855 1 0.0 -43.85 -81.96 0.25 
856 2 0.0 -47.6 -81.73 0.26 
857 1 0.0 -48.19 -83.26 0.25 
858 1 0.0 -46.58 -80.44 0.25 
859 2 0.0 -49.12 -83.31 1.62 
860 2 0.0 -47.01 -84.41 0.25 
861 2 0.0 -49.12 -83.31 4.34 
862 2 0.0 -46.94 -79.62 1.62 
863 2 0.0 -45.0 -80.82 0.25 
864 2 0.0 -46.94 -79.62 4.34 
865 2 0.0 44.41 83.54 0.26 
866 2 0.0 40.26 85.63 2.98 
867 1 0.0 41.19 86.99 2.98 
868 1 0.0 39.77 84.06 2.98 
869 2 0.0 43.52 84.01 2.98 
870 1 0.0 44.04 85.57 2.98 
871 1 0.0 42.57 82.67 2.99 
872 2 0.0 44.96 85.67 4.35 
873 2 0.0 42.8 86.66 2.99 
874 2 0.0 44.96 85.67 1.62 
875 2 0.0 42.96 81.87 4.35 
876 2 0.0 40.98 82.97 2.99 
877 2 0.0 42.96 81.87 1.62 
878 2 0.0 36.01 87.51 0.26 
879 1 0.0 36.87 88.91 0.26 
880 1 0.0 35.6 85.91 0.26 
881 2 0.0 39.34 86.05 0.26 
882 1 0.0 39.79 87.64 0.26 
883 1 0.0 38.46 84.67 0.26 
884 2 0.0 40.7 87.78 1.62 
885 2 0.0 38.5 88.66 0.26 
886 2 0.0 40.7 87.78 4.35 
887 2 0.0 38.89 83.89 1.62 
888 2 0.0 36.85 84.89 0.26 
889 2 0.0 38.89 83.89 4.35 
890 2 0.0 31.67 89.17 2.98 
891 1 0.0 32.46 90.62 2.98 
892 1 0.0 31.34 87.57 2.98 
893 2 0.0 35.07 87.89 2.98 
894 1 0.0 35.44 89.49 2.98 
895 1 0.0 34.26 86.46 2.98 
896 2 0.0 36.35 89.67 4.35 
897 2 0.0 34.1 90.45 2.98 
898 2 0.0 36.35 89.68 1.62 
899 2 0.0 34.73 85.7 4.35 
900 2 0.0 32.64 86.61 2.99 
901 2 0.0 34.73 85.7 1.62 
902 1 0.0 27.98 92.11 0.26 
903 1 0.0 27.0 89.01 0.26 
904 2 0.0 30.72 89.51 0.26 
905 1 0.0 31.0 91.13 0.26 
906 1 0.0 29.97 88.04 0.26 
907 2 0.0 31.9 91.36 1.62 
908 2 0.0 29.62 92.02 0.26 
909 2 0.0 31.9 91.36 4.35 
910 2 0.0 30.48 87.31 1.62 
911 2 0.0 28.35 88.11 0.26 
912 2 0.0 30.48 87.31 4.35 
913 2 0.0 -36.02 -87.47 0.26 
914 2 0.0 -31.68 -89.14 2.97 
915 1 0.0 -32.47 -90.58 2.98 
916 1 0.0 -31.34 -87.53 2.98 
917 2 0.0 -35.08 -87.85 2.97 
918 1 0.0 -35.45 -89.46 2.98 
919 1 0.0 -34.27 -86.42 2.98 
920 2 0.0 -36.35 -89.64 4.34 
921 2 0.0 -34.11 -90.41 2.98 
922 2 0.0 -36.35 -89.64 1.62 
923 2 0.0 -34.74 -85.67 4.34 
924 2 0.0 -32.65 -86.57 2.98 
925 2 0.0 -34.74 -85.66 1.62 
926 2 0.0 -27.26 -90.59 0.26 
927 1 0.0 -27.98 -92.07 0.25 
928 1 0.0 -27.01 -88.97 0.25 
929 2 0.0 -30.73 -89.47 0.26 
930 1 0.0 -31.01 -91.09 0.25 
931 1 0.0 -29.98 -88.01 0.25 
932 2 0.0 -31.91 -91.32 1.62 
933 2 0.0 -29.63 -91.99 0.25 
934 2 0.0 -31.91 -91.32 4.34 
935 2 0.0 -30.49 -87.27 1.62 
936 2 0.0 -28.36 -88.07 0.25 
937 2 0.0 -30.49 -87.27 4.34 
938 2 0.0 -22.78 -91.83 2.97 
939 1 0.0 -23.43 -93.34 2.98 
940 1 0.0 -22.61 -90.19 2.98 
941 2 0.0 -26.3 -90.88 2.97 
942 1 0.0 -26.5 -92.51 2.98 
943 1 0.0 -25.62 -89.38 2.98 
944 2 0.0 -27.39 -92.78 4.34 
945 2 0.0 -25.07 -93.33 2.98 
946 2 0.0 -27.39 -92.78 1.62 
947 2 0.0 -26.17 -88.67 4.34 
948 2 0.0 -24.0 -89.37 2.98 
949 2 0.0 -26.17 -88.67 1.62 
950 1 0.0 -18.82 -94.39 0.25 
951 1 0.0 -18.15 -91.2 0.25 
952 2 0.0 -21.8 -92.07 0.26 
953 1 0.0 -21.93 -93.71 0.25 
954 1 0.0 -21.2 -90.54 0.25 
955 2 0.0 -22.8 -94.02 1.62 
956 2 0.0 -20.46 -94.46 0.25 
957 2 0.0 -22.8 -94.02 4.34 
958 2 0.0 -21.78 -89.85 1.62 
959 2 0.0 -19.59 -90.44 0.25 
960 2 0.0 -21.78 -89.86 4.34 
961 2 0.0 18.24 92.88 0.26 
962 1 0.0 18.15 91.24 0.26 
963 2 0.0 13.66 93.67 2.98 
964 1 0.0 14.16 95.24 2.99 
965 1 0.0 13.65 92.03 2.99 
966 2 0.0 17.25 93.07 2.98 
967 1 0.0 17.3 94.71 2.98 
968 1 0.0 16.73 91.51 2.98 
969 2 0.0 18.15 95.07 4.35 
970 2 0.0 15.79 95.39 2.99 
971 2 0.0 18.15 95.07 1.62 
972 2 0.0 17.34 90.86 4.35 
973 2 0.0 15.12 91.34 2.99 
974 2 0.0 17.34 90.86 1.62 
975 2 0.0 9.05 94.23 0.27 
976 1 0.0 9.46 95.82 0.26 
977 1 0.0 9.12 92.59 0.26 
978 2 0.0 12.66 93.81 0.26 
979 1 0.0 12.63 95.45 0.26 
980 1 0.0 12.22 92.23 0.26 
981 2 0.0 13.46 95.86 1.62 
982 2 0.0 11.09 96.06 0.26 
983 2 0.0 13.46 95.85 4.35 
984 2 0.0 12.86 91.61 1.62 
985 2 0.0 10.62 91.98 0.26 
986 2 0.0 12.86 91.61 4.35 
987 2 0.0 4.41 94.57 2.98 
988 1 0.0 4.75 96.18 2.99 
989 1 0.0 4.56 92.93 2.99 
990 2 0.0 8.05 94.32 2.98 
991 1 0.0 7.93 95.96 2.99 
992 1 0.0 7.68 92.72 2.99 
993 2 0.0 8.74 96.4 4.35 
994 2 0.0 6.37 96.49 2.99 
995 2 0.0 8.74 96.41 1.62 
996 2 0.0 8.35 92.13 4.35 
997 2 0.0 6.09 92.39 2.99 
998 2 0.0 8.35 92.13 1.62 
999 1 0.0 0.03 96.3 0.26 
1000 2 0.0 3.41 94.61 0.26 
1001 1 0.0 3.21 96.24 0.26 
1002 1 0.0 3.12 92.99 0.26 
1003 2 0.0 4.0 96.72 1.62 
1004 2 0.0 1.62 96.7 0.26 
1005 2 0.0 4.0 96.72 4.35 
1006 2 0.0 3.82 92.44 1.62 
1007 2 0.0 1.55 92.59 0.26 
1008 2 0.0 3.82 92.44 4.35 
1009 2 0.0 -9.05 -94.2 0.26 
1010 1 0.0 -9.12 -92.56 0.25 
1011 2 0.0 -4.42 -94.54 2.97 
1012 1 0.0 -4.76 -96.15 2.98 
1013 1 0.0 -4.57 -92.9 2.98 
1014 2 0.0 -8.05 -94.29 2.97 
1015 1 0.0 -7.93 -95.93 2.98 
1016 1 0.0 -7.68 -92.69 2.98 
1017 2 0.0 -8.75 -96.37 4.34 
1018 2 0.0 -6.37 -96.46 2.98 
1019 2 0.0 -8.75 -96.37 1.62 
1020 2 0.0 -8.35 -92.1 4.34 
1021 2 0.0 -6.1 -92.36 2.98 
1022 2 0.0 -8.35 -92.1 1.62 
1023 2 0.0 0.23 -94.64 0.26 
1024 1 0.0 -0.03 -96.27 0.26 
1025 1 0.0 0.0 -93.02 0.26 
1026 2 0.0 -3.41 -94.58 0.26 
1027 1 0.0 -3.21 -96.21 0.25 
1028 1 0.0 -3.12 -92.96 0.25 
1029 2 0.0 -4.01 -96.69 1.62 
1030 2 0.0 -1.63 -96.66 0.25 
1031 2 0.0 -4.01 -96.69 4.34 
1032 2 0.0 -3.82 -92.41 1.62 
1033 2 0.0 -1.55 -92.55 0.26 
1034 2 0.0 -3.82 -92.41 4.34 
1035 2 0.0 4.87 -94.52 2.98 
1036 1 0.0 4.7 -96.16 2.98 
1037 1 0.0 4.57 -92.91 2.98 
1038 2 0.0 1.24 -94.64 2.98 
1039 1 0.0 1.52 -96.26 2.98 
1040 1 0.0 1.44 -93.01 2.98 
1041 2 0.0 0.75 -96.78 4.35 
1042 2 0.0 3.12 -96.63 2.98 
1043 2 0.0 0.75 -96.78 1.62 
1044 2 0.0 0.72 -92.49 4.35 